<UPF version="2.0.1">
  <PP_INFO>
Generated using "atomic" code by A. Dal Corso  v.6.4.1
Author: ADC
Generation date: 13Aug2019
Pseudopotential type: PAW
Element: Cs
Functional:  SLA  PZ   NOGX NOGC
    Suggested minimum cutoff for wavefunctions:  34. Ry
    Suggested minimum cutoff for charge density: 242. Ry
    The Pseudo was generated with a Scalar-Relativistic Calculation
    Local Potential by smoothing AE potential with Bessel fncs, cutoff radius:   2.0000
    Pseudopotential contains additional information for GIPAW reconstruction.
    Valence configuration:
    nl pn  l   occ       Rcut    Rcut US       E pseu
    5S  1  0  2.00      1.600      2.100    -1.976813
    6S  2  0  1.00      1.600      2.100    -0.163696
    5P  2  1  6.00      1.600      2.300    -1.000102
    Generation configuration:
    5S  1  0  2.00      1.600      2.100    -1.976809
    6S  2  0  1.00      1.600      2.100    -0.163697
    6S  2  0  0.00      1.600      2.100     1.000000
    5P  2  1  6.00      1.600      2.300    -1.000099
    6P  3  1  0.00      1.600      2.300     6.000000
    5D  3  2  0.00      1.500      2.100     0.300000
    5D  3  2  0.00      1.500      2.100     4.050000
    4F  4  3  0.00      1.500      2.100     0.050000
    4F  4  3  0.00      1.500      2.100     4.050000
    Pseudization used: troullier-martins

    <PP_INPUTFILE>
 &amp;input
   title='Cs',
   zed=55.,
   rel=1,
   config='[Xe] 6s1 6p0 5d-1 4f-1',
   iswitch=3,
   dft='LDA'
 /
 &amp;inputp
   lpaw = .true.,
   use_xsd=.FALSE.,
   pseudotype=3,
   file_pseudopw='Cs.pz-spn-kjpaw_psl.1.0.0.UPF',
   author='ADC',
   lloc=-1,
   rcloc=2.0,
   which_augfun='PSQ',
   rmatch_augfun_nc=.true.,
   nlcc=.true.,
   new_core_ps=.true.,
   rcore=1.6,
   tm=.true.
 /
9
5S  1  0  2.00  0.00  1.60  2.10  0.0
6S  2  0  1.00  0.00  1.60  2.10  0.0
6S  2  0  0.00  1.00  1.60  2.10  0.0
5P  2  1  6.00  0.00  1.60  2.30  0.0
6P  3  1  0.00  6.00  1.60  2.30  0.0
5D  3  2  0.00  0.30  1.50  2.10  0.0
5D  3  2  0.00  4.05  1.50  2.10  0.0
4F  4  3  0.00  0.05  1.50  2.10  0.0
4F  4  3  0.00  4.05  1.50  2.10  0.0
</PP_INPUTFILE>
  </PP_INFO>
  <!--
 END OF HUMAN READABLE SECTION 
-->
  <PP_HEADER generated="Generated using &quot;atomic&quot; code by A. Dal Corso  v.6.4.1" author="ADC" date="13Aug2019" comment="" element="Cs" pseudo_type="PAW" relativistic="scalar" is_ultrasoft="true" is_paw="true" is_coulomb="false" has_so="false" has_wfc="true" has_gipaw="true" paw_as_gipaw="true" core_correction="true" functional=" SLA  PZ   NOGX NOGC" z_valence="9.000000000000e0" total_psenergy="-4.033871465893e2" wfc_cutoff="3.412475815473e1" rho_cutoff="2.420336310537e2" l_max="3" l_max_rho="6" l_local="-1" mesh_size="1251" number_of_wfc="3" number_of_proj="9"/>
  <PP_MESH dx="1.250000000000e-2" mesh="1251" xmin="-7.000000000000e0" rmax="1.000000000000e2" zmesh="5.500000000000e1">
    <PP_R>
      1.657967210099120e-5 1.678821870307313e-5 1.699938849848331e-5 1.721321448293189e-5
      1.742973006716400e-5 1.764896908218016e-5 1.787096578452252e-5 1.809575486162748e-5
      1.832337143724565e-5 1.855385107693008e-5 1.878722979359340e-5 1.902354405313488e-5
      1.926283078013837e-5 1.950512736364176e-5 1.975047166297923e-5 1.999890201369670e-5
      2.025045723354188e-5 2.050517662852968e-5 2.076309999908378e-5 2.102426764625560e-5
      2.128872037802136e-5 2.155649951565842e-5 2.182764690020183e-5 2.210220489898209e-5
      2.238021641224511e-5 2.266172487985544e-5 2.294677428808390e-5 2.323540917648045e-5
      2.352767464483360e-5 2.382361636021745e-5 2.412328056412712e-5 2.442671407970412e-5
      2.473396431905262e-5 2.504507929064758e-5 2.536010760683634e-5 2.567909849143421e-5
      2.600210178741590e-5 2.632916796470356e-5 2.666034812805278e-5 2.699569402503794e-5
      2.733525805413768e-5 2.767909327292239e-5 2.802725340634455e-5 2.837979285513331e-5
      2.873676670429486e-5 2.909823073171935e-5 2.946424141689649e-5 2.983485594974047e-5
      3.021013223952607e-5 3.059012892393711e-5 3.097490537822862e-5 3.136452172450440e-5
      3.175903884111127e-5 3.215851837215129e-5 3.256302273711400e-5 3.297261514062936e-5
      3.338735958234376e-5 3.380732086692002e-5 3.423256461416322e-5 3.466315726927411e-5
      3.509916611323108e-5 3.554065927330304e-5 3.598770573369449e-5 3.644037534632434e-5
      3.689873884174062e-5 3.736286784017198e-5 3.783283486271872e-5 3.830871334268426e-5
      3.879057763704923e-5 3.927850303809008e-5 3.977256578514337e-5 4.027284307651849e-5
      4.077941308156007e-5 4.129235495286194e-5 4.181174883863520e-5 4.233767589523115e-5
      4.287021829982241e-5 4.340945926324316e-5 4.395548304299098e-5 4.450837495639242e-5
      4.506822139393378e-5 4.563510983275997e-5 4.620912885034288e-5 4.679036813832181e-5
      4.737891851651815e-5 4.797487194712585e-5 4.857832154908092e-5 4.918936161261139e-5
      4.980808761397034e-5 5.043459623035434e-5 5.106898535500934e-5 5.171135411252667e-5
      5.236180287433169e-5 5.302043327436669e-5 5.368734822497176e-5 5.436265193296473e-5
      5.504644991592392e-5 5.573884901867533e-5 5.643995742998743e-5 5.714988469947601e-5
      5.786874175472122e-5 5.859664091860049e-5 5.933369592683906e-5 6.008002194578149e-5
      6.083573559038675e-5 6.160095494244930e-5 6.237579956904971e-5 6.316039054123735e-5
      6.395485045294778e-5 6.475930344015872e-5 6.557387520028602e-5 6.639869301182443e-5
      6.723388575423513e-5 6.807958392808327e-5 6.893591967542924e-5 6.980302680047570e-5
      7.068104079047510e-5 7.157009883689969e-5 7.247033985687801e-5 7.338190451490105e-5
      7.430493524480122e-5 7.523957627200794e-5 7.618597363608326e-5 7.714427521354073e-5
      7.811463074095163e-5 7.909719183834127e-5 8.009211203288011e-5 8.109954678287274e-5
      8.211965350204849e-5 8.315259158415770e-5 8.419852242787719e-5 8.525760946202929e-5
      8.633001817111779e-5 8.741591612118519e-5 8.851547298599570e-5 8.962886057354639e-5
      9.075625285291304e-5 9.189782598143298e-5 9.305375833223001e-5 9.422423052208590e-5
      9.540942543966153e-5 9.660952827407410e-5 9.782472654383309e-5 9.905521012614043e-5
      1.003011712865595e-4 1.015628047090564e-4 1.028403075264201e-4 1.041338793510652e-4
      1.054437223062207e-4 1.067700410575137e-4 1.081130428449472e-4 1.094729375152829e-4
      1.108499375548298e-4 1.122442581226455e-4 1.136561170841557e-4 1.150857350451954e-4
      1.165333353864797e-4 1.179991442985071e-4 1.194833908169020e-4 1.209863068582032e-4
      1.225081272560994e-4 1.240490897981241e-4 1.256094352628097e-4 1.271894074573093e-4
      1.287892532554932e-4 1.304092226365218e-4 1.320495687239071e-4 1.337105478250625e-4
      1.353924194713516e-4 1.370954464586414e-4 1.388198948883629e-4 1.405660342090922e-4
      1.423341372586504e-4 1.441244803067363e-4 1.459373430980938e-4 1.477730088962220e-4
      1.496317645276369e-4 1.515139004266874e-4 1.534197106809369e-4 1.553494930771154e-4
      1.573035491476479e-4 1.592821842177714e-4 1.612857074532411e-4 1.633144319086385e-4
      1.653686745762877e-4 1.674487564357844e-4 1.695550025041514e-4 1.716877418866220e-4
      1.738473078280637e-4 1.760340377650490e-4 1.782482733785787e-4 1.804903606474729e-4
      1.827606499024289e-4 1.850594958807612e-4 1.873872577818318e-4 1.897442993231728e-4
      1.921309887973210e-4 1.945476991293623e-4 1.969948079352028e-4 1.994726975805725e-4
      2.019817552407692e-4 2.045223729611575e-4 2.070949477184250e-4 2.096998814826113e-4
      2.123375812799174e-4 2.150084592563021e-4 2.177129327418840e-4 2.204514243161473e-4
      2.232243618739716e-4 2.260321786924926e-4 2.288753134988000e-4 2.317542105384922e-4
      2.346693196450886e-4 2.376210963103178e-4 2.406100017552898e-4 2.436365030025605e-4
      2.467010729491079e-4 2.498041904402208e-4 2.529463403443204e-4 2.561280136287224e-4
      2.593497074363501e-4 2.626119251634160e-4 2.659151765380768e-4 2.692599777000800e-4
      2.726468512814130e-4 2.760763264879627e-4 2.795489391822079e-4 2.830652319669471e-4
      2.866257542700815e-4 2.902310624304659e-4 2.938817197848341e-4 2.975782967558260e-4
      3.013213709411137e-4 3.051115272036538e-4 3.089493577630742e-4 3.128354622882069e-4
      3.167704479907912e-4 3.207549297203484e-4 3.247895300602551e-4 3.288748794250239e-4
      3.330116161588033e-4 3.372003866351251e-4 3.414418453578984e-4 3.457366550636774e-4
      3.500854868252169e-4 3.544890201563272e-4 3.589479431180506e-4 3.634629524261715e-4
      3.680347535600799e-4 3.726640608730047e-4 3.773515977036316e-4 3.820980964891278e-4
      3.869042988795850e-4 3.917709558539050e-4 3.966988278371413e-4 4.016886848193171e-4
      4.067413064757383e-4 4.118574822888177e-4 4.170380116714352e-4 4.222837040918469e-4
      4.275953792001657e-4 4.329738669564342e-4 4.384200077603069e-4 4.439346525823643e-4
      4.495186630970800e-4 4.551729118174572e-4 4.608982822313626e-4 4.666956689395716e-4
      4.725659777955518e-4 4.785101260470056e-4 4.845290424791907e-4 4.906236675600452e-4
      4.967949535871376e-4 5.030438648364650e-4 5.093713777131240e-4 5.157784809038746e-4
      5.222661755316261e-4 5.288354753118632e-4 5.354874067110417e-4 5.422230091069766e-4
      5.490433349512455e-4 5.559494499336381e-4 5.629424331486708e-4 5.700233772641980e-4
      5.771933886921446e-4 5.844535877613830e-4 5.918051088927897e-4 5.992491007764976e-4
      6.067867265513832e-4 6.144191639868100e-4 6.221476056666551e-4 6.299732591756550e-4
      6.378973472880917e-4 6.459211081588539e-4 6.540457955169029e-4 6.622726788611680e-4
      6.706030436589094e-4 6.790381915465749e-4 6.875794405331834e-4 6.962281252062666e-4
      7.049855969404002e-4 7.138532241083603e-4 7.228323922949331e-4 7.319245045134154e-4
      7.411309814248404e-4 7.504532615599555e-4 7.598928015439984e-4 7.694510763242968e-4
      7.791295794007307e-4 7.889298230590977e-4 7.988533386074076e-4 8.089016766151550e-4
      8.190764071555968e-4 8.293791200510800e-4 8.398114251214569e-4 8.503749524356177e-4
      8.610713525661987e-4 8.719022968474812e-4 8.828694776365449e-4 8.939746085777015e-4
      9.052194248702536e-4 9.166056835396249e-4 9.281351637118984e-4 9.398096668918075e-4
      9.516310172442251e-4 9.636010618791962e-4 9.757216711405478e-4 9.879947388981362e-4
      1.000422182843768e-3 1.013005944790844e-3 1.025747990977770e-3 1.038650312375187e-3
      1.051714924997063e-3 1.064943870215701e-3 1.078339215080704e-3 1.091903052641963e-3
      1.105637502276690e-3 1.119544710020586e-3 1.133626848903154e-3 1.147886119287243e-3
      1.162324749212865e-3 1.176944994745319e-3 1.191749140327716e-3 1.206739499137921e-3
      1.221918413449996e-3 1.237288255000185e-3 1.252851425357502e-3 1.268610356298976e-3
      1.284567510189629e-3 1.300725380367222e-3 1.317086491531845e-3 1.333653400140402e-3
      1.350428694806071e-3 1.367414996702772e-3 1.384614959974733e-3 1.402031272151213e-3
      1.419666654566421e-3 1.437523862784740e-3 1.455605687031283e-3 1.473914952627877e-3
      1.492454520434523e-3 1.511227287296410e-3 1.530236186496553e-3 1.549484188214125e-3
      1.568974299988555e-3 1.588709567189462e-3 1.608693073492497e-3 1.628927941361177e-3
      1.649417332534774e-3 1.670164448522343e-3 1.691172531102972e-3 1.712444862832303e-3
      1.733984767555448e-3 1.755795610926343e-3 1.777880800933637e-3 1.800243788433206e-3
      1.822888067687341e-3 1.845817176910747e-3 1.869034698823390e-3 1.892544261210302e-3
      1.916349537488443e-3 1.940454247280658e-3 1.964862156996896e-3 1.989577080422709e-3
      2.014602879315163e-3 2.039943464006249e-3 2.065602794013886e-3 2.091584878660590e-3
      2.117893777699946e-3 2.144533601950956e-3 2.171508513940357e-3 2.198822728553031e-3
      2.226480513690581e-3 2.254486190938206e-3 2.282844136239951e-3 2.311558780582465e-3
      2.340634610687349e-3 2.370076169712212e-3 2.399888057960550e-3 2.430074933600555e-3
      2.460641513392958e-3 2.491592573428045e-3 2.522932949871914e-3 2.554667539722149e-3
      2.586801301572976e-3 2.619339256390059e-3 2.652286488295044e-3 2.685648145359943e-3
      2.719429440411548e-3 2.753635651845939e-3 2.788272124453245e-3 2.823344270252782e-3
      2.858857569338685e-3 2.894817570736188e-3 2.931229893268671e-3 2.968100226435607e-3
      3.005434331301574e-3 3.043238041396410e-3 3.081517263626731e-3 3.120277979198888e-3
      3.159526244553548e-3 3.199268192312027e-3 3.239510032234518e-3 3.280258052190379e-3
      3.321518619140632e-3 3.363298180132805e-3 3.405603263308310e-3 3.448440478922461e-3
      3.491816520377349e-3 3.535738165267703e-3 3.580212276439892e-3 3.625245803064275e-3
      3.670845781721008e-3 3.717019337499528e-3 3.763773685111869e-3 3.811116130019960e-3
      3.859054069577148e-3 3.907594994184013e-3 3.956746488458782e-3 4.006516232422436e-3
      4.056912002698725e-3 4.107941673729289e-3 4.159613219004044e-3 4.211934712307071e-3
      4.264914328978142e-3 4.318560347190148e-3 4.372881149242585e-3 4.427885222871287e-3
      4.483581162574665e-3 4.539977670956613e-3 4.597083560086299e-3 4.654907752875093e-3
      4.713459284470757e-3 4.772747303669226e-3 4.832781074344123e-3 4.893569976894252e-3
      4.955123509709321e-3 5.017451290654058e-3 5.080563058571044e-3 5.144468674802418e-3
      5.209178124730728e-3 5.274701519339189e-3 5.341049096791507e-3 5.408231224031650e-3
      5.476258398403679e-3 5.545141249291987e-3 5.614890539782181e-3 5.685517168342798e-3
      5.757032170528244e-3 5.829446720703107e-3 5.902772133788177e-3 5.977019867028439e-3
      6.052201521783267e-3 6.128328845339173e-3 6.205413732745344e-3 6.283468228672263e-3
      6.362504529293735e-3 6.442534984192525e-3 6.523572098290033e-3 6.605628533800210e-3
      6.688717112208042e-3 6.772850816272964e-3 6.858042792057402e-3 6.944306350980893e-3
      7.031654971900028e-3 7.120102303214527e-3 7.209662164999873e-3 7.300348551166669e-3
      7.392175631647260e-3 7.485157754609796e-3 7.579309448700153e-3 7.674645425312100e-3
      7.771180580885941e-3 7.868929999236136e-3 7.967908953908173e-3 8.068132910565089e-3
      8.169617529404029e-3 8.272378667603158e-3 8.376432381799383e-3 8.481794930597250e-3
      8.588482777109357e-3 8.696512591528801e-3 8.805901253733866e-3 8.916665855925570e-3
      9.028823705298361e-3 9.142392326744380e-3 9.257389465591805e-3 9.373833090377534e-3
      9.491741395654842e-3 9.611132804836322e-3 9.732025973072551e-3 9.854439790167040e-3
      9.978393383527756e-3 1.010390612115585e-2 1.023099761467193e-2 1.035968772238042e-2
      1.048999655237248e-2 1.062194446566793e-2 1.075555207939664e-2 1.089084027002010e-2
      1.102783017659333e-2 1.116654320406796e-2 1.130700102663673e-2 1.144922559112019e-2
      1.159323912039589e-2 1.173906411687077e-2 1.188672336599723e-2 1.203623993983335e-2
      1.218763720064799e-2 1.234093880457118e-2 1.249616870529040e-2 1.265335115779349e-2
      1.281251072215843e-2 1.297367226739096e-2 1.313686097531041e-2 1.330210234448439e-2
      1.346942219421305e-2 1.363884666856331e-2 1.381040224045398e-2 1.398411571579220e-2
      1.416001423766191e-2 1.433812529056503e-2 1.451847670471595e-2 1.470109666039005e-2
      1.488601369232696e-2 1.507325669418910e-2 1.526285492307650e-2 1.545483800409815e-2
      1.564923593500106e-2 1.584607909085743e-2 1.604539822881083e-2 1.624722449288210e-2
      1.645158941883563e-2 1.665852493910688e-2 1.686806338779188e-2 1.708023750569956e-2
      1.729508044546753e-2 1.751262577674222e-2 1.773290749142424e-2 1.795596000897967e-2
      1.818181818181818e-2 1.841051730073881e-2 1.864209310044417e-2 1.887658176512410e-2
      1.911401993410955e-2 1.935444470759744e-2 1.959789365244785e-2 1.984440480805367e-2
      2.009401669228451e-2 2.034676830750512e-2 2.060269914666957e-2 2.086184919949223e-2
      2.112425895869606e-2 2.138996942633984e-2 2.165902212022471e-2 2.193145908038146e-2
      2.220732287563945e-2 2.248665661027791e-2 2.276950393076119e-2 2.305590903255855e-2
      2.334591666704984e-2 2.363957214851803e-2 2.393692136122949e-2 2.423801076660370e-2
      2.454288741047280e-2 2.485159893043266e-2 2.516419356328639e-2 2.548072015258134e-2
      2.580122815624105e-2 2.612576765429319e-2 2.645438935669457e-2 2.678714461125483e-2
      2.712408541165947e-2 2.746526440559406e-2 2.781073490297054e-2 2.816055088425697e-2
      2.851476700891217e-2 2.887343862392625e-2 2.923662177246880e-2 2.960437320264566e-2
      2.997675037636597e-2 3.035381147832079e-2 3.073561542507440e-2 3.112222187427028e-2
      3.151369123395265e-2 3.191008467200543e-2 3.231146412570979e-2 3.271789231142198e-2
      3.312943273437291e-2 3.354614969859093e-2 3.396810831694950e-2 3.439537452134128e-2
      3.482801507297994e-2 3.526609757283191e-2 3.570969047217906e-2 3.615886308331440e-2
      3.661368559037231e-2 3.707422906029483e-2 3.754056545393614e-2 3.801276763730649e-2
      3.849090939295773e-2 3.897506543151199e-2 3.946531140333533e-2 3.996172391035824e-2
      4.046438051804490e-2 4.097335976751288e-2 4.148874118780554e-2 4.201060530831827e-2
      4.253903367138168e-2 4.307410884500257e-2 4.361591443576542e-2 4.416453510189616e-2
      4.472005656649002e-2 4.528256563090604e-2 4.585215018832999e-2 4.642889923750776e-2
      4.701290289665176e-2 4.760425241752185e-2 4.820304019968377e-2 4.880935980494677e-2
      4.942330597198264e-2 5.004497463112923e-2 5.067446291937912e-2 5.131186919555817e-2
      5.195729305569392e-2 5.261083534857748e-2 5.327259819152190e-2 5.394268498631761e-2
      5.462120043538967e-2 5.530825055815756e-2 5.600394270760056e-2 5.670838558703264e-2
      5.742168926708670e-2 5.814396520291409e-2 5.887532625159933e-2 5.961588668979406e-2
      6.036576223157367e-2 6.112507004651691e-2 6.189392877801487e-2 6.267245856180867e-2
      6.346078104476076e-2 6.425901940386315e-2 6.506729836548328e-2 6.588574422485348e-2
      6.671448486580449e-2 6.755364978074735e-2 6.840337009090753e-2 6.926377856681204e-2
      7.013500964903587e-2 7.101719946920827e-2 7.191048587128322e-2 7.281500843307871e-2
      7.373090848808504e-2 7.465832914754928e-2 7.559741532283657e-2 7.654831374807200e-2
      7.751117300306949e-2 7.848614353654626e-2 7.947337768963193e-2 8.047302971967161e-2
      8.148525582432844e-2 8.251021416599103e-2 8.354806489648526e-2 8.459897018209944e-2
      8.566309422892262e-2 8.674060330850185e-2 8.783166578382334e-2 8.893645213561829e-2
      9.005513498900207e-2 9.118788914044661e-2 9.233489158509240e-2 9.349632154440531e-2
      9.467236049417910e-2 9.586319219289253e-2 9.706900271042144e-2 9.828998045711213e-2
      9.952631621322192e-2 1.007782031587277e-1 1.020458369035119e-1 1.033294155179263e-1
      1.046291395637406e-1 1.059452121254814e-1 1.072778388421640e-1 1.086272279394240e-1
      1.099935902620536e-1 1.113771393069452e-1 1.127780912564522e-1 1.141966650121667e-1
      1.156330822291242e-1 1.170875673504375e-1 1.185603476423657e-1 1.200516532298261e-1
      1.215617171323504e-1 1.230907753004959e-1 1.246390666527124e-1 1.262068331126734e-1
      1.277943196470782e-1 1.294017743039272e-1 1.310294482512812e-1 1.326775958165061e-1
      1.343464745260118e-1 1.360363451454925e-1 1.377474717206700e-1 1.394801216185532e-1
      1.412345655692142e-1 1.430110777080889e-1 1.448099356188142e-1 1.466314203765977e-1
      1.484758165921390e-1 1.503434124560995e-1 1.522344997841321e-1 1.541493740624797e-1
      1.560883344941436e-1 1.580516840456364e-1 1.600397294943202e-1 1.620527814763407e-1
      1.640911545351660e-1 1.661551671707332e-1 1.682451418892161e-1 1.703614052534170e-1
      1.725042879337914e-1 1.746741247601184e-1 1.768712547738161e-1 1.790960212809196e-1
      1.813487719057223e-1 1.836298586450919e-1 1.859396379234729e-1 1.882784706485763e-1
      1.906467222677740e-1 1.930447628252002e-1 1.954729670195701e-1 1.979317142627300e-1
      2.004213887389383e-1 2.029423794648975e-1 2.054950803505380e-1 2.080798902605658e-1
      2.106972130767891e-1 2.133474577612221e-1 2.160310384199890e-1 2.187483743680280e-1
      2.214998901946086e-1 2.242860158296776e-1 2.271071866110330e-1 2.299638433523495e-1
      2.328564324120553e-1 2.357854057630751e-1 2.387512210634551e-1 2.417543417278689e-1
      2.447952370000311e-1 2.478743820260139e-1 2.509922579284926e-1 2.541493518819208e-1
      2.573461571886511e-1 2.605831733560173e-1 2.638609061743804e-1 2.671798677961626e-1
      2.705405768158700e-1 2.739435583511235e-1 2.773893441247123e-1 2.808784725476732e-1
      2.844114888034213e-1 2.879889449329351e-1 2.916113999210123e-1 2.952794197836156e-1
      2.989935776563102e-1 3.027544538838209e-1 3.065626361107100e-1 3.104187193731975e-1
      3.143233061921393e-1 3.182770066671689e-1 3.222804385720299e-1 3.263342274511029e-1
      3.304390067171466e-1 3.345954177502740e-1 3.388041099981640e-1 3.430657410775433e-1
      3.473809768769394e-1 3.517504916607240e-1 3.561749681744731e-1 3.606550977516424e-1
      3.651915804215939e-1 3.697851250189750e-1 3.744364492944734e-1 3.791462800269715e-1
      3.839153531371023e-1 3.887444138022426e-1 3.936342165729468e-1 3.985855254908449e-1
      4.035991142080302e-1 4.086757661079386e-1 4.138162744277587e-1 4.190214423823745e-1
      4.242920832898677e-1 4.296290206986045e-1 4.350330885159118e-1 4.405051311383814e-1
      4.460460035838068e-1 4.516565716247791e-1 4.573377119239709e-1 4.630903121711109e-1
      4.689152712216920e-1 4.748134992374180e-1 4.807859178284145e-1 4.868334601972392e-1
      4.929570712846893e-1 4.991577079174563e-1 5.054363389576308e-1 5.117939454540847e-1
      5.182315207957694e-1 5.247500708669279e-1 5.313506142042717e-1 5.380341821561270e-1
      5.448018190435823e-1 5.516545823236720e-1 5.585935427545988e-1 5.656197845630484e-1
      5.727344056135993e-1 5.799385175802636e-1 5.872332461201950e-1 5.946197310495668e-1
      6.020991265216784e-1 6.096726012072903e-1 6.173413384772283e-1 6.251065365872951e-1
      6.329694088654918e-1 6.409311839016098e-1 6.489931057391983e-1 6.571564340699442e-1
      6.654224444305098e-1 6.737924284018289e-1 6.822676938109273e-1 6.908495649352692e-1
      6.995393827096752e-1 7.083385049358549e-1 7.172483064945555e-1 7.262701795603988e-1
      7.354055338194079e-1 7.446557966892692e-1 7.540224135423784e-1 7.635068479316729e-1
      7.731105818193234e-1 7.828351158082903e-1 7.926819693767911e-1 8.026526811157325e-1
      8.127488089691065e-1 8.229719304774321e-1 8.333236430242456e-1 8.438055640856906e-1
      8.544193314832608e-1 8.651666036397037e-1 8.760490598381603e-1 8.870684004845538e-1
      8.982263473732761e-1 9.095246439562331e-1 9.209650556152484e-1 9.325493699379219e-1
      9.442793969969362e-1 9.561569696328810e-1 9.681839437406490e-1 9.803621985594104e-1
      9.926936369662588e-1 1.005180185773536e0 1.017823796029894e0 1.030626443325161e0
      1.043590128099023e0 1.056716875953600e0 1.070008737969954e0 1.083467791028563e0
      1.097096138133856e0 1.110895908742789e0 1.124869259097598e0 1.139018372562708e0
      1.153345459965879e0 1.167852759943672e0 1.182542539291218e0 1.197417093316431e0
      1.212478746198640e0 1.227729851351748e0 1.243172791791968e0 1.258809980510157e0
      1.274643860848870e0 1.290676906884126e0 1.306911623811983e0 1.323350548339995e0
      1.339996249083561e0 1.356851326967289e0 1.373918415631394e0 1.391200181843198e0
      1.408699325913836e0 1.426418582120166e0 1.444360719132024e0 1.462528540444824e0
      1.480924884817603e0 1.499552626716602e0 1.518414676764387e0 1.537513982194655e0
      1.556853527312739e0 1.576436333961907e0 1.596265461995544e0 1.616344009755242e0
      1.636675114554942e0 1.657261953171135e0 1.678107742339234e0 1.699215739256213e0
      1.720589242089530e0 1.742231590492489e0 1.764146166126063e0 1.786336393187274e0
      1.808805738944254e0 1.831557714277984e0 1.854595874230903e0 1.877923818562379e0
      1.901545192311168e0 1.925463686364982e0 1.949683038037174e0 1.974207031650720e0
      1.999039499129520e0 2.024184320597134e0 2.049645424983079e0 2.075426790636710e0
      2.101532445948866e0 2.127966469981307e0 2.154732993104061e0 2.181836197640828e0
      2.209280318522454e0 2.237069643948665e0 2.265208516058099e0 2.293701331606767e0
      2.322552542655073e0 2.351766657263436e0 2.381348240196702e0 2.411301913637394e0
      2.441632357907919e0 2.472344312201911e0 2.503442575324704e0 2.534932006443185e0
      2.566817525845036e0 2.599104115707528e0 2.631796820876021e0 2.664900749652203e0
      2.698421074592302e0 2.732363033315291e0 2.766731929321266e0 2.801533132820162e0
      2.836772081570820e0 2.872454281730681e0 2.908585308716122e0 2.945170808073606e0
      2.982216496361854e0 3.019728162045020e0 3.057711666397190e0 3.096172944418202e0
      3.135118005760988e0 3.174552935670626e0 3.214483895935135e0 3.254917125848303e0
      3.295858943184570e0 3.337315745186181e0 3.379294009562806e0 3.421800295503645e0
      3.464841244702364e0 3.508423582394847e0 3.552554118410017e0 3.597239748233922e0
      3.642487454087124e0 3.688304306015725e0 3.734697462996061e0 3.781674174053284e0
      3.829241779394086e0 3.877407711553565e0 3.926179496556620e0 3.975564755093894e0
      4.025571203712494e0 4.076206656021768e0 4.127479023914147e0 4.179396318801434e0
      4.231966652866587e0 4.285198240331248e0 4.339099398739270e0 4.393678550256305e0
      4.448944222985825e0 4.504905052301642e0 4.561569782197174e0 4.618947266651769e0
      4.677046471014091e0 4.735876473403033e0 4.795446466126168e0 4.855765757116039e0
      4.916843771384600e0 4.978690052495828e0 5.041314264056981e0 5.104726191228537e0
      5.168935742253108e0 5.233952950003697e0 5.299787973551276e0 5.366451099752224e0
      5.433952744855647e0 5.502303456130906e0 5.571513913515719e0 5.641594931284843e0
      5.712557459739894e0 5.784412586920328e0 5.857171540335937e0 5.930845688721242e0
      6.005446543811798e0 6.080985762143000e0 6.157475146871410e0 6.234926649618989e0
      6.313352372340638e0 6.392764569215069e0 6.473175648559620e0 6.554598174769049e0
      6.637044870278707e0 6.720528617552532e0 6.805062461095858e0 6.890659609493738e0
      6.977333437474768e0 7.065097488000887e0 7.153965474383572e0 7.243951282426472e0
      7.335068972595184e0 7.427332782214192e0 7.520757127691432e0 7.615356606770987e0
      7.711146000813901e0 7.808140277107889e0 7.906354591205975e0 8.005804289294526e0
      8.106504910591228e0 8.208472189773010e0 8.311722059434709e0 8.416270652578538e0
      8.522134305134855e0 8.629329558514780e0 8.737873162194715e0 8.847782076333585e0
      8.959073474422851e0 9.071764745969855e0 9.185873499215081e0 9.301417563883350e0
      9.418414993969854e0 9.536884070561099e0 9.656843304691293e0 9.778311440234862e0
      9.901307456835081e0 1.002585057286980e1 1.015196024845429e1 1.027965618848191e1
      1.040895834570313e1 1.053988692384303e1 1.067246238075834e1 1.080670543163397e1
      1.094263705221968e1 1.108027848210779e1 1.121965122805170e1 1.136077706732656e1
      1.150367805113189e1 1.164837650803711e1 1.179489504747053e1 1.194325656325200e1
      1.209348423717022e1 1.224560154260490e1 1.239963224819447e1 1.255560042155008e1
      1.271353043301611e1 1.287344695947817e1 1.303537498821891e1 1.319933982082221e1
      1.336536707712680e1 1.353348269922922e1 1.370371295553748e1 1.387608444487548e1
      1.405062410063909e1 1.422735919500466e1 1.440631734319022e1 1.458752650777053e1
      1.477101500304626e1 1.495681149946805e1 1.514494502811652e1 1.533544498523825e1
      1.552834113683912e1 1.572366362333531e1 1.592144296426265e1 1.612171006304562e1
      1.632449621182579e1 1.652983309635150e1 1.673775280092875e1 1.694828781343434e1
      1.716147103039236e1 1.737733576211414e1 1.759591573790321e1 1.781724511132553e1
      1.804135846554593e1 1.826829081873203e1 1.849807762952566e1 1.873075480258353e1
      1.896635869418735e1 1.920492611792446e1 1.944649435044026e1 1.969110113726248e1
      1.993878469869925e1 2.018958373581100e1 2.044353743645746e1 2.070068548142111e1
      2.096106805060706e1 2.122472582932155e1 2.149170001462895e1 2.176203232178879e1
      2.203576499077415e1 2.231294079287140e1 2.259360303736356e1 2.287779557829739e1
      2.316556282133553e1 2.345694973069524e1 2.375200183617387e1 2.405076524026323e1
      2.435328662535308e1 2.465961326102525e1 2.496979301143986e1 2.528387434281391e1
      2.560190633099447e1 2.592393866912677e1 2.625002167541874e1 2.658020630100363e1
      2.691454413790085e1 2.725308742707767e1 2.759588906661187e1 2.794300261995695e1
      2.829448232431193e1 2.865038309909560e1 2.901076055452817e1 2.937567100032028e1
      2.974517145447140e1 3.011931965217936e1 3.049817405486116e1 3.088179385928804e1
      3.127023900683499e1 3.166357019284650e1 3.206184887612072e1 3.246513728851212e1
      3.287349844465570e1 3.328699615181295e1 3.370569501984179e1 3.412966047129231e1
      3.455895875162874e1 3.499365693958086e1 3.543382295762500e1 3.587952558259688e1
      3.633083445643856e1 3.678782009707966e1 3.725055390945633e1 3.771910819666825e1
      3.819355617127596e1 3.867397196674089e1 3.916043064900837e1 3.965300822823727e1
      4.015178167067656e1 4.065682891069127e1 4.116822886294030e1 4.168606143470652e1
      4.221040753838285e1 4.274134910411487e1 4.327896909260229e1 4.382335150806225e1
      4.437458141135456e1 4.493274493327319e1 4.549792928800410e1 4.607022278675243e1
      4.664971485154188e1 4.723649602918638e1 4.783065800543883e1 4.843229361931694e1
      4.904149687760928e1 4.965836296956451e1 5.028298828176437e1 5.091547041318479e1
      5.155590819044569e1 5.220440168325258e1 5.286105222003324e1 5.352596240376982e1
      5.419923612803142e1 5.488097859320733e1 5.557129632294454e1 5.627029718079299e1
      5.697809038705865e1 5.769478653587012e1 5.842049761245886e1 5.915533701065688e1
      5.989941955061538e1 6.065286149674488e1 6.141578057588245e1 6.218829599568649e1
      6.297052846326282e1 6.376260020402618e1 6.456463498079732e1 6.537675811314198e1
      6.619909649695197e1 6.703177862427262e1 6.787493460338064e1 6.872869617911295e1