<UPF version="2.0.1">
  <PP_INFO>
Generated using "atomic" code by A. Dal Corso  v.6.3
Author: ADC
Generation date:  6Sep2018
Pseudopotential type: PAW
Element: Al
Functional:  SLA  PW   PSX  PSC
    Suggested minimum cutoff for wavefunctions:  30. Ry
    Suggested minimum cutoff for charge density: 144. Ry
    The Pseudo was generated with a Scalar-Relativistic Calculation
    Local Potential by smoothing AE potential with Bessel fncs, cutoff radius:   1.9000
    Pseudopotential contains additional information for GIPAW reconstruction.
    Valence configuration:
    nl pn  l   occ       Rcut    Rcut US       E pseu
    3S  1  0  2.00      1.700      1.900    -0.567034
    3P  2  1  1.00      1.700      2.000    -0.197675
    Generation configuration:
    3S  1  0  2.00      1.700      1.900    -0.567032
    3S  1  0  0.00      1.700      1.900     6.000000
    3P  2  1  1.00      1.700      2.000    -0.197675
    3P  2  1  0.00      1.700      2.000     3.500000
    3D  3  2  0.00      1.700      1.900     0.100000
    3D  3  2  0.00      1.700      1.900     0.300000
    Pseudization used: troullier-martins

    <PP_INPUTFILE>
 &amp;input
   title='Al',
   zed=13.,
   rel=1,
   config='[Ne] 3s2 3p1 3d-1',
   iswitch=3,
   dft='PBESOL'
 /
 &amp;inputp
   lpaw = .true.,
   use_xsd=.FALSE.,
   pseudotype=3,
   file_pseudopw='Al.pbesol-n-kjpaw_psl.1.0.0.UPF',
   author='ADC',
   lloc=-1,
   rcloc=1.9,
   which_augfun='PSQ',
   rmatch_augfun_nc=.true.,
   nlcc=.true.,
   new_core_ps=.true.,
   rcore=1.8,
   tm=.true.
 /
6
3S  1  0  2.00  0.00  1.70  1.90  0.0
3S  1  0  0.00  6.00  1.70  1.90  0.0
3P  2  1  1.00  0.00  1.70  2.00  0.0
3P  2  1  0.00  3.50  1.70  2.00  0.0
3D  3  2  0.00  0.10  1.70  1.90  0.0
3D  3  2  0.00  0.30  1.70  1.90  0.0
</PP_INPUTFILE>
  </PP_INFO>
  <!--
 END OF HUMAN READABLE SECTION 
-->
  <PP_HEADER generated="Generated using &quot;atomic&quot; code by A. Dal Corso  v.6.3" author="ADC" date=" 6Sep2018" comment="" element="Al" pseudo_type="PAW" relativistic="scalar" is_ultrasoft="true" is_paw="true" is_coulomb="false" has_so="false" has_wfc="true" has_gipaw="true" paw_as_gipaw="true" core_correction="true" functional=" SLA  PW   PSX  PSC" z_valence="3.000000000000e0" total_psenergy="-3.821512852909e1" wfc_cutoff="2.950276651932e1" rho_cutoff="1.437192726019e2" l_max="2" l_max_rho="4" l_local="-1" mesh_size="1135" number_of_wfc="2" number_of_proj="6"/>
  <PP_MESH dx="1.250000000000e-2" mesh="1135" xmin="-7.000000000000e0" rmax="1.000000000000e2" zmesh="1.300000000000e1">
    <PP_R>
      7.014476658111662e-5 7.102707912838633e-5 7.192048980127554e-5 7.282513819701953e-5
      7.374116566877076e-5 7.466871534768530e-5 7.560793216528758e-5 7.655896287611625e-5
      7.752195608065464e-5 7.849706224855035e-5 7.948443374212593e-5 8.048422484018605e-5
      8.149659176212387e-5 8.252169269233052e-5 8.355968780491215e-5 8.461073928871679e-5
      8.567501137267717e-5 8.675267035147172e-5 8.784388461150826e-5 8.894882465723521e-5
      9.006766313778265e-5 9.120057487393945e-5 9.234773688546928e-5 9.350932841877036e-5
      9.468553097488316e-5 9.587652833784997e-5 9.708250660343188e-5 9.830365420818650e-5
      9.954016195891139e-5 1.007922230624585e-4 1.020600331559224e-4 1.033437903372098e-4
      1.046436951959918e-4 1.059599508450475e-4 1.072927629519999e-4 1.086423397714524e-4
      1.100088921775288e-4 1.113926336968227e-4 1.127937805417618e-4 1.142125516443913e-4
      1.156491686905825e-4 1.171038561546716e-4 1.185768413345346e-4 1.200683543871025e-4
      1.215786283643244e-4 1.231078992495819e-4 1.246564059945621e-4 1.262243905565943e-4
      1.278120979364564e-4 1.294197762166570e-4 1.310476766001980e-4 1.326960534498264e-4
      1.343651643277784e-4 1.360552700360247e-4 1.377666346570207e-4 1.394995255949704e-4
      1.412542136176083e-4 1.430309728985078e-4 1.448300810599213e-4 1.466518192161597e-4
      1.484964720175161e-4 1.503643276947436e-4 1.522556781040920e-4 1.541708187729107e-4
      1.561100489458257e-4 1.580736716314968e-4 1.600619936499638e-4 1.620753256805872e-4
      1.641139823105929e-4 1.661782820842273e-4 1.682685475525296e-4 1.703851053237321e-4
      1.725282861142926e-4 1.746984248005698e-4 1.768958604711489e-4 1.791209364798241e-4
      1.813740004992487e-4 1.836554045752595e-4 1.859655051818849e-4 1.883046632770449e-4
      1.906732443589506e-4 1.930716185232153e-4 1.955001605206814e-4 1.979592498159769e-4
      2.004492706468076e-4 2.029706120839940e-4 2.055236680922654e-4 2.081088375918174e-4
      2.107265245206437e-4 2.133771378976530e-4 2.160610918865779e-4 2.187788058606898e-4
      2.215307044683264e-4 2.243172176992437e-4 2.271387809518036e-4 2.299958351010047e-4
      2.328888265673704e-4 2.358182073867033e-4 2.387844352807161e-4 2.417879737285523e-4
      2.448292920392052e-4 2.479088654248482e-4 2.510271750750883e-4 2.541847082321524e-4
      2.573819582670209e-4 2.606194247565162e-4 2.638976135613642e-4 2.672170369052349e-4
      2.705782134547791e-4 2.739816684006715e-4 2.774279335396716e-4 2.809175473577187e-4
      2.844510551140717e-4 2.880290089265062e-4 2.916519678575852e-4 2.953204980020126e-4
      2.990351725750870e-4 3.027965720022680e-4 3.066052840098685e-4 3.104619037168892e-4
      3.143670337280051e-4 3.183212842277259e-4 3.223252730757368e-4 3.263796259034415e-4
      3.304849762117184e-4 3.346419654699053e-4 3.388512432160312e-4 3.431134671583078e-4
      3.474293032778974e-4 3.517994259329749e-4 3.562245179640958e-4 3.607052708008931e-4
      3.652423845701137e-4 3.698365682050143e-4 3.744885395561357e-4 3.791990255034655e-4
      3.839687620700167e-4 3.887984945368318e-4 3.936889775594347e-4 3.986409752857481e-4
      4.036552614754911e-4 4.087326196210828e-4 4.138738430700631e-4 4.190797351490557e-4
      4.243511092892901e-4 4.296887891537000e-4 4.350936087656237e-4 4.405664126391219e-4
      4.461080559109340e-4 4.517194044740963e-4 4.574013351132381e-4 4.631547356415814e-4
      4.689805050396644e-4 4.748795535958078e-4 4.808528030483510e-4 4.869011867296728e-4
      4.930256497120293e-4 4.992271489552221e-4 5.055066534561240e-4 5.118651444000903e-4
      5.183036153142667e-4 5.248230722228329e-4 5.314245338041948e-4 5.381090315501547e-4
      5.448776099270865e-4 5.517313265391306e-4 5.586712522934532e-4 5.656984715675720e-4
      5.728140823787953e-4 5.800191965557905e-4 5.873149399123047e-4 5.947024524230823e-4
      6.021828884019826e-4 6.097574166823456e-4 6.174272207996278e-4 6.251934991763239e-4
      6.330574653092332e-4 6.410203479590622e-4 6.490833913424254e-4 6.572478553262575e-4
      6.655150156246642e-4 6.738861639982637e-4 6.823626084560199e-4 6.909456734596242e-4
      6.996367001304479e-4 7.084370464590877e-4 7.173480875175635e-4 7.263712156741701e-4
      7.355078408110388e-4 7.447593905444380e-4 7.541273104478329e-4 7.636130642777703e-4
      7.732181342025834e-4 7.829440210339898e-4 7.927922444615961e-4 8.027643432903465e-4
      8.128618756809736e-4 8.230864193934559e-4 8.334395720335500e-4 8.439229513024221e-4
      8.545381952494081e-4 8.652869625279742e-4 8.761709326548752e-4 8.871918062725861e-4
      8.983513054150350e-4 9.096511737766628e-4 9.210931769848941e-4 9.326791028760075e-4
      9.444107617744951e-4 9.562899867759302e-4 9.683186340333844e-4 9.804985830474669e-4
      9.928317369599901e-4 1.005320022851345e-3 1.017965392041611e-3 1.030769820395448e-3
      1.043735308630841e-3 1.056863882631703e-3 1.070157593764432e-3 1.083618519198441e-3
      1.097248762230712e-3 1.111050452614452e-3 1.125025746891863e-3 1.139176828731107e-3
      1.153505909267517e-3 1.168015227449073e-3 1.182707050386264e-3 1.197583673706315e-3
      1.212647421911883e-3 1.227900648744279e-3 1.243345737551221e-3 1.258985101659263e-3
      1.274821184750866e-3 1.290856461246228e-3 1.307093436689930e-3 1.323534648142414e-3
      1.340182664576424e-3 1.357040087278397e-3 1.374109550254926e-3 1.391393720644332e-3
      1.408895299133399e-3 1.426617020379376e-3 1.444561653437262e-3 1.462732002192481e-3
      1.481130905798995e-3 1.499761239122923e-3 1.518625913191752e-3 1.537727875649187e-3
      1.557070111215722e-3 1.576655642155020e-3 1.596487528746134e-3 1.616568869761695e-3
      1.636902802952090e-3 1.657492505535752e-3 1.678341194695598e-3 1.699452128081727e-3
      1.720828604320431e-3 1.742473963529613e-3 1.764391587840687e-3 1.786584901927044e-3
      1.809057373539162e-3 1.831812514046452e-3 1.854853878985913e-3 1.878185068617695e-3
      1.901809728487646e-3 1.925731549996934e-3 1.949954270978842e-3 1.974481676282802e-3
      1.999317598365796e-3 2.024465917891178e-3 2.049930564335037e-3 2.075715516600191e-3
      2.101824803637890e-3 2.128262505077352e-3 2.155032751863217e-3 2.182139726901008e-3
      2.209587665710726e-3 2.237380857088652e-3 2.265523643777484e-3 2.294020423144901e-3
      2.322875647870654e-3 2.352093826642315e-3 2.381679524859761e-3 2.411637365348530e-3
      2.441972029082150e-3 2.472688255913544e-3 2.503790845315649e-3 2.535284657131336e-3
      2.567174612332775e-3 2.599465693790350e-3 2.632162947051233e-3 2.665271481127771e-3
      2.698796469295772e-3 2.732743149902843e-3 2.767116827186897e-3 2.801922872104941e-3
      2.837166723172309e-3 2.872853887312433e-3 2.908989940717314e-3 2.945580529718820e-3
      2.982631371670923e-3 3.020148255843063e-3 3.058137044324717e-3 3.096603672941373e-3
      3.135554152182017e-3 3.174994568138273e-3 3.214931083455378e-3 3.255369938295102e-3
      3.296317451310783e-3 3.337780020634645e-3 3.379764124877493e-3 3.422276324141040e-3
      3.465323261042910e-3 3.508911661754570e-3 3.553048337052317e-3 3.597740183381460e-3
      3.642994183933918e-3 3.688817409739344e-3 3.735217020769998e-3 3.782200267059507e-3
      3.829774489835688e-3 3.877947122667644e-3 3.926725692627263e-3 3.976117821465341e-3
      4.026131226802490e-3 4.076773723335061e-3 4.128053224056163e-3 4.179977741492115e-3
      4.232555388954403e-3 4.285794381807415e-3 4.339703038752105e-3 4.394289783125792e-3
      4.449563144218345e-3 4.505531758604889e-3 4.562204371495286e-3 4.619589838100611e-3
      4.677697125016768e-3 4.736535311625557e-3 4.796113591513343e-3 4.856441273907567e-3
      4.917527785131353e-3 4.979382670076350e-3 5.042015593694181e-3 5.105436342506588e-3
      5.169654826134597e-3 5.234681078846938e-3 5.300525261127891e-3 5.367197661264898e-3
      5.434708696956124e-3 5.503068916938247e-3 5.572289002634728e-3 5.642379769824780e-3
      5.713352170333376e-3 5.785217293742494e-3 5.857986369123871e-3 5.931670766793593e-3
      6.006282000088705e-3 6.081831727166207e-3 6.158331752824661e-3 6.235794030348711e-3
      6.314230663376831e-3 6.393653907792506e-3 6.474076173639263e-3 6.555510027059759e-3
      6.637968192259269e-3 6.721463553493876e-3 6.806009157083639e-3 6.891618213451133e-3
      6.978304099185582e-3 7.066080359132991e-3 7.154960708512576e-3 7.244959035059745e-3
      7.336089401196127e-3 7.428366046226835e-3 7.521803388565386e-3 7.616416027986639e-3
      7.712218747907979e-3 7.809226517699315e-3 7.907454495022033e-3 8.006918028197434e-3
      8.107632658604949e-3 8.209614123110477e-3 8.312878356525331e-3 8.417441494096076e-3
      8.523319874025690e-3 8.630530040026441e-3 8.739088743904905e-3 8.849012948179416e-3
      8.960319828730540e-3 9.073026777484813e-3 9.187151405132278e-3 9.302711543878209e-3
      9.419725250229382e-3 9.538210807815483e-3 9.658186730245948e-3 9.779671764002739e-3
      9.902684891369557e-3 1.002724533339783e-2 1.015337255291002e-2 1.028108625754081e-2
      1.041040640281636e-2 1.054135319527250e-2 1.067394709561194e-2 1.080820882190140e-2
      1.094415935280874e-2 1.108181993088102e-2 1.122121206586365e-2 1.136235753806130e-2
      1.150527840174116e-2 1.164999698857898e-2 1.179653591114834e-2 1.194491806645408e-2
      1.209516663950982e-2 1.224730510696080e-2 1.240135724075207e-2 1.255734711184295e-2
      1.271529909396820e-2 1.287523786744635e-2 1.303718842303617e-2 1.320117606584145e-2
      1.336722641926501e-2 1.353536542901242e-2 1.370561936714604e-2 1.387801483619007e-2
      1.405257877328729e-2 1.422933845440802e-2 1.440832149861208e-2 1.458955587236426e-2
      1.477306989390417e-2 1.495889223767105e-2 1.514705193878416e-2 1.533757839757963e-2
      1.553050138420426e-2 1.572585104326724e-2 1.592365789855021e-2 1.612395285777676e-2
      1.632676721744178e-2 1.653213266770159e-2 1.674008129732561e-2 1.695064559871031e-2
      1.716385847295614e-2 1.737975323500853e-2 1.759836361886327e-2 1.781972378283761e-2
      1.804386831490752e-2 1.827083223811216e-2 1.850065101602632e-2 1.873336055830160e-2
      1.896899722627743e-2 1.920759783866259e-2 1.944919967728819e-2 1.969384049293308e-2
      1.994155851122243e-2 2.019239243860057e-2 2.044638146837898e-2 2.070356528686029e-2
      2.096398407953944e-2 2.122767853738256e-2 2.149468986318519e-2 2.176505977801024e-2
      2.203883052770693e-2 2.231604488951195e-2 2.259674617873330e-2 2.288097825551852e-2
      2.316878553170787e-2 2.346021297777379e-2 2.375530612984769e-2 2.405411109683492e-2
      2.435667456761949e-2 2.466304381835930e-2 2.497326671987306e-2 2.528739174512032e-2
      2.560546797677536e-2 2.592754511489650e-2 2.625367348469184e-2 2.658390404438266e-2
      2.691828839316580e-2 2.725687877927607e-2 2.759972810815014e-2 2.794688995069319e-2
      2.829841855164941e-2 2.865436883807793e-2 2.901479642793516e-2 2.937975763876532e-2
      2.974930949650012e-2 3.012350974436915e-2 3.050241685192253e-2 3.088609002416668e-2
      3.127458921081534e-2 3.166797511565683e-2 3.206630920603910e-2 3.246965372247428e-2
      3.287807168836360e-2 3.329162691984519e-2 3.371038403576535e-2 3.413440846777537e-2
      3.456376647055551e-2 3.499852513216721e-2 3.543875238453586e-2 3.588451701406528e-2
      3.633588867238575e-2 3.679293788723724e-2 3.725573607348943e-2 3.772435554430049e-2
      3.819886952241614e-2 3.867935215161084e-2 3.916587850827302e-2 3.965852461313571e-2
      4.015736744315511e-2 4.066248494353829e-2 4.117395603992232e-2 4.169186065070670e-2
      4.221627969954051e-2 4.274729512796705e-2 4.328498990822739e-2 4.382944805622484e-2
      4.438075464465283e-2 4.493899581628739e-2 4.550425879744735e-2 4.607663191162352e-2
      4.665620459327950e-2 4.724306740182599e-2 4.783731203577080e-2 4.843903134704695e-2
      4.904831935552106e-2 4.966527126368400e-2 5.028998347152672e-2 5.092255359160262e-2
      5.156308046427998e-2 5.221166417318575e-2 5.286840606084402e-2 5.353340874451094e-2
      5.420677613220874e-2 5.488861343896176e-2 5.557902720323637e-2 5.627812530358782e-2
      5.698601697551676e-2 5.770281282853707e-2 5.842862486345915e-2 5.916356648989009e-2
      5.990775254395421e-2 6.066129930623667e-2 6.142432451995210e-2 6.219694740934253e-2
      6.297928869830636e-2 6.377147062926158e-2 6.457361698224673e-2 6.538585309426143e-2
      6.620830587885064e-2 6.704110384593527e-2 6.788437712189197e-2 6.873825746988583e-2
      6.960287831045844e-2 7.047837474237523e-2 7.136488356373488e-2 7.226254329334429e-2
      7.317149419236263e-2 7.409187828621709e-2 7.502383938679485e-2 7.596752311491400e-2
      7.692307692307693e-2 7.789065011851037e-2 7.887039388649455e-2 7.986246131398658e-2
      8.086700741354036e-2 8.188418914752765e-2 8.291416545266397e-2 8.395709726484245e-2
      8.501314754428064e-2 8.608248130098318e-2 8.716526562052509e-2 8.826166969015942e-2
      8.937186482525259e-2 9.049602449605317e-2 9.163432435479685e-2 9.278694226315237e-2
      9.395405832001307e-2 9.513585488963733e-2 9.633251663014347e-2 9.754423052236310e-2
      9.877118589905704e-2 1.000135744744993e-1 1.012715903744325e-1 1.025454301664003e-1
      1.038352928904618e-1 1.051413800902920e-1 1.064638958446732e-1 1.078030467993826e-1
      1.091590421994814e-1 1.105320939220096e-1 1.119224165090924e-1 1.133302272014628e-1
      1.147557459724054e-1 1.161991955621287e-1 1.176608015125677e-1 1.191407922026256e-1
      1.206393988838592e-1 1.221568557166111e-1 1.236933998065987e-1 1.252492712419624e-1
      1.268247131307791e-1 1.284199716390495e-1 1.300352960291609e-1 1.316709386988358e-1
      1.333271552205689e-1 1.350042043815614e-1 1.367023482241568e-1 1.384218520867853e-1
      1.401629846454238e-1 1.419260179555770e-1 1.437112274947863e-1 1.455188922056746e-1
      1.473492945395305e-1 1.492027205004427e-1 1.510794596899883e-1 1.529798053524840e-1
      1.549040544208059e-1 1.568525075627858e-1 1.588254692281914e-1 1.608232476962967e-1
      1.628461551240519e-1 1.648945075948584e-1 1.669686251679572e-1 1.690688319284387e-1
      1.711954560378822e-1 1.733488297856314e-1 1.755292896407157e-1 1.777371763044234e-1
      1.799728347635378e-1 1.822366143442417e-1 1.845288687666999e-1 1.868499562003299e-1
      1.892002393197654e-1 1.915800853615255e-1 1.939898661813961e-1 1.964299583125328e-1
      1.989007430242959e-1 2.014026063818232e-1 2.039359393063545e-1 2.065011376363132e-1
      2.090986021891573e-1 2.117287388240082e-1 2.143919585050655e-1 2.170886773658230e-1
      2.198193167740897e-1 2.225843033978278e-1 2.253840692718235e-1 2.282190518651899e-1
      2.310896941497255e-1 2.339964446691281e-1 2.369397576090793e-1 2.399200928682150e-1
      2.429379161299822e-1 2.459936989354057e-1 2.490879187567664e-1 2.522210590722056e-1
      2.553936094412732e-1 2.586060655814177e-1 2.618589294454475e-1 2.651527092999598e-1
      2.684879198047571e-1 2.718650820932672e-1 2.752847238539677e-1 2.787473794128416e-1
      2.822535898168651e-1 2.858039029185464e-1 2.893988734615318e-1 2.930390631672817e-1
      2.967250408228441e-1 3.004573823697273e-1 3.042366709938906e-1 3.080634972168715e-1
      3.119384589880520e-1 3.158621617780932e-1 3.198352186735392e-1 3.238582504726123e-1
      3.279318857822171e-1 3.320567611161573e-1 3.362335209945967e-1 3.404628180447645e-1
      3.447453131029281e-1 3.490816753176544e-1 3.534725822543608e-1 3.579187200011899e-1
      3.624207832762111e-1 3.669794755359694e-1 3.715955090854064e-1 3.762696051891543e-1
      3.810024941842395e-1 3.857949155941971e-1 3.906476182446216e-1 3.955613603801762e-1
      4.005369097830655e-1 4.055750438930069e-1 4.106765499287061e-1 4.158422250108590e-1
      4.210728762867081e-1 4.263693210561557e-1 4.317323868994735e-1 4.371629118066114e-1
      4.426617443081332e-1 4.482297436078061e-1 4.538677797168475e-1 4.595767335898709e-1
      4.653574972625346e-1 4.712109739909220e-1 4.771380783926825e-1 4.831397365899359e-1
      4.892168863539869e-1 4.953704772518511e-1 5.016014707946240e-1 5.079108405877257e-1
      5.142995724830209e-1 5.207686647328672e-1 5.273191281460909e-1 5.339519862459258e-1
      5.406682754299462e-1 5.474690451319998e-1 5.543553579861896e-1 5.613282899929105e-1
      5.683889306869732e-1 5.755383833078528e-1 5.827777649720653e-1 5.901082068477253e-1
      5.975308543312906e-1 6.050468672265302e-1 6.126574199257523e-1 6.203637015932982e-1
      6.281669163513575e-1 6.360682834681134e-1 6.440690375482512e-1 6.521704287258755e-1
      6.603737228598382e-1 6.686802017315385e-1 6.770911632452011e-1 6.856079216306721e-1
      6.942318076487793e-1 7.029641687992560e-1 7.118063695312991e-1 7.207597914567643e-1
      7.298258335660405e-1 7.390059124466547e-1 7.483014625046067e-1 7.577139361885062e-1
      7.672448042165174e-1 7.768955558061580e-1 7.866676989070007e-1 7.965627604362843e-1
      8.065822865175054e-1 8.167278427220008e-1 8.270010143135657e-1 8.374034064961654e-1
      8.479366446647388e-1 8.586023746591819e-1 8.694022630215070e-1 8.803379972562400e-1
      8.914112860941080e-1 9.026238597590163e-1 9.139774702384150e-1 9.254738915570416e-1
      9.371149200541133e-1 9.489023746640205e-1 9.608380972005241e-1 9.729239526445555e-1
      9.851618294356186e-1 9.975536397668565e-1 1.010101319883848e0 1.022806830387138e0
      1.035672156538593e0 1.048699308571597e0 1.061890322005161e0 1.075247257961973e0
      1.088772203490447e0 1.102467271890842e0 1.116334603045456e0 1.130376363752996e0
      1.144594748067142e0 1.158991977639369e0 1.173570302066091e0 1.188331999240156e0
      1.203279375706782e0 1.218414767023956e0 1.233740538127360e0 1.249259083699912e0
      1.264972828545928e0 1.280884227970011e0 1.296995768160696e0 1.313309966578912e0
      1.329829372351359e0 1.346556566668792e0 1.363494163189357e0 1.380644808446974e0
      1.398011182264851e0 1.415595998174236e0 1.433402003838386e0 1.451431981481914e0
      1.469688748325513e0 1.488175157026140e0 1.506894096122771e0 1.525848490487718e0
      1.545041301783667e0 1.564475528926433e0 1.584154208553541e0 1.604080415498726e0
      1.624257263272356e0 1.644687904547949e0 1.665375531654775e0 1.686323377076652e0
      1.707534713957051e0 1.729012856610510e0 1.750761161040518e0 1.772783025463892e0
      1.795081890841748e0 1.817661241417173e0 1.840524605259627e0 1.863675554816229e0
      1.887117707469952e0 1.910854726104835e0 1.934890319678338e0 1.959228243800854e0
      1.983872301322543e0 2.008826342927538e0 2.034094267735600e0 2.059680023911397e0
      2.085587609281378e0 2.111821071958469e0 2.138384510974592e0 2.165282076921127e0
      2.192517972597486e0 2.220096453667772e0 2.248021829325765e0 2.276298462968229e0
      2.304930772876694e0 2.333923232907843e0 2.363280373192533e0 2.393006780843666e0
      2.423107100672921e0 2.453586035916500e0 2.484448348970056e0 2.515698862132782e0
      2.547342458360947e0 2.579384082030844e0 2.611828739711350e0 2.644681500946248e0
      2.677947499046311e0 2.711631931891426e0 2.745740062742762e0 2.780277221065149e0
      2.815248803359849e0 2.850660274007738e0 2.886517166123154e0 2.922825082418446e0
      2.959589696079395e0 2.996816751651694e0 3.034512065938504e0 3.072681528909380e0
      3.111331104620572e0 3.150466832146908e0 3.190094826525447e0 3.230221279710924e0
      3.270852461543291e0 3.311994720727382e0 3.353654485824885e0 3.395838266258868e0
      3.438552653330835e0 3.481804321250674e0 3.525600028179501e0 3.569946617285614e0
      3.614851017813796e0 3.660320246167977e0 3.706361407007601e0 3.752981694357728e0
      3.800188392733091e0 3.847988878276370e0 3.896390619910667e0 3.945401180506593e0
      3.995028218063961e0 4.045279486908343e0 4.096162838902746e0 4.147686224674429e0
      4.199857694857249e0 4.252685401349575e0 4.306177598588012e0 4.360342644837221e0
      4.415189003495865e0 4.470725244419076e0 4.526960045257497e0 4.583902192813153e0
      4.641560584412466e0 4.699944229296413e0 4.759062250028299e0 4.818923883919147e0
      4.879538484471026e0 4.940915522838612e0 5.003064589309001e0 5.065995394800284e0
      5.129717772378863e0 5.194241678795858e0 5.259577196042940e0 5.325734532927588e0
      5.392724026668296e0 5.460556144509765e0 5.529241485358390e0 5.598790781438442e0
      5.669214899968911e0 5.740524844861609e0 5.812731758440514e0 5.885846923182760e0
      5.959881763481613e0 6.034847847431474e0 6.110756888635487e0 6.187620748035793e0
      6.265451435766780e0 6.344261113031778e0 6.424062094003175e0 6.504866847746616e0
      6.586688000169281e0 6.669538335992685e0 6.753430800750379e0 6.838378502810641e0
      6.924394715424754e0 7.011492878800957e0 7.099686602204453e0 7.188989666083980e0
      7.279416024224934e0 7.370979805929760e0 7.463695318225650e0 7.557577048100005e0
      7.652639664764150e0 7.748898021945317e0 7.846367160207668e0 7.945062309302373e0
      8.044998890547248e0 8.146192519236463e0 8.248659007080350e0 8.352414364676124e0
      8.457474804009509e0 8.563856740987873e0 8.671576798005333e0 8.780651806539925e0
      8.891098809783667e0 9.002935065305532e0 9.116178047747949e0 9.230845451557350e0
      9.346955193748844e0 9.464525416705888e0 9.583574491015035e0 9.704121018336322e0
      9.826183834309926e0 9.949782011499151e0 1.007493486237066e1 1.020166194231205e1
      1.032998305268735e1 1.045991824393116e1 1.059148781868144e1 1.072471233495194e1
      1.085961260934438e1 1.099620972030108e1 1.113452501139855e1 1.127458009468240e1
      1.141639685404436e1 1.155999744864161e1 1.170540431635920e1 1.185264017731607e1
      1.200172803741501e1 1.215269119193750e1 1.230555322918359e1 1.246033803415757e1
      1.261706979230016e1 1.277577299326739e1 1.293647243475734e1 1.309919322638470e1
      1.326396079360418e1 1.343080088168342e1 1.359973955972557e1 1.377080322474282e1
      1.394401860578087e1 1.411941276809539e1 1.429701311738110e1 1.447684740405388e1
      1.465894372758692e1 1.484333054090128e1 1.503003665481161e1 1.521909124252813e1
      1.541052384421476e1 1.560436437160499e1 1.580064311267564e1 1.599939073637928e1
      1.620063829743652e1 1.640441724118816e1 1.661075940850878e1 1.681969704078186e1
      1.703126278493747e1 1.724548969855364e1 1.746241125502140e1 1.768206134877530e1
      1.790447430058941e1 1.812968486293989e1 1.835772822543538e1 1.858864002031514e1
      1.882245632801695e1 1.905921368281464e1 1.929894907852651e1 1.954169997429594e1
      1.978750430044423e1 2.003640046439745e1 2.028842735668764e1 2.054362435702939e1
      2.080203134047331e1 2.106368868363620e1 2.132863727101030e1 2.159691850135150e1
      2.186857429414776e1 2.214364709616949e1 2.242217988810155e1 2.270421619125941e1
      2.298980007438927e1 2.327897616055384e1 2.357178963410497e1 2.386828624774357e1
      2.416851232966879e1 2.447251479081678e1 2.478034113219051e1 2.509203945228218e1
      2.540765845458838e1 2.572724745522039e1 2.605085639060981e1 2.637853582531111e1
      2.671033695990270e1 2.704631163898683e1 2.738651235929070e1 2.773099227786906e1
      2.807980522040992e1 2.843300568964533e1 2.879064887386710e1 2.915279065555043e1
      2.951948762008556e1 2.989079706461914e1 3.026677700700742e1 3.064748619488123e1
      3.103298411482578e1 3.142333100167543e1 3.181858784792530e1 3.221881641326187e1
      3.262407923421266e1 3.303443963391799e1 3.344996173202528e1 3.387071045470761e1
      3.429675154480904e1 3.472815157211658e1 3.516497794376223e1 3.560729891475535e1
      3.605518359864746e1 3.650870197833177e1 3.696792491697765e1 3.743292416910363e1
      3.790377239178898e1 3.838054315602632e1 3.886331095821765e1 3.935215123181417e1
      3.984714035910323e1 4.034835568314311e1 4.085587551984778e1 4.136977917022442e1
      4.189014693276381e1 4.241706011598760e1 4.295060105115277e1 4.349085310511579e1
      4.403790069335938e1 4.459182929318203e1 4.515272545705453e1 4.572067682614371e1
      4.629577214400633e1 4.687810127045601e1 4.746775519560336e1 4.806482605407393e1
      4.866940713940416e1 4.928159291861853e1 4.990147904699070e1 5.052916238298922e1
      5.116474100341245e1 5.180831421871304e1 5.245998258851504e1 5.311984793732726e1
      5.378801337045275e1 5.446458329009996e1 5.514966341169538e1 5.584336078040164e1
      5.654578378784414e1 5.725704218904670e1 5.797724711958164e1 5.870651111293475e1
      5.944494811808846e1 6.019267351732744e1 6.094980414426631e1 6.171645830210608e1
      6.249275578211877e1 6.327881788236481e1 6.407476742664683e1 6.488072878370028e1
      6.569682788662705e1 6.652319225257244e1 6.735995100264970e1 6.820723488211610e1
      6.906517628080142e1 6.993390925379479e1 7.081356954239086e1 7.170429459529911e1
      7.260622359012152e1 7.351949745509827e1 7.444425889112897e1 7.538065239406956e1
      7.632882427730971e1 7.728892269463554e1 7.826109766337779e1 7.924550108785337e1
      8.024228678310031e1 8.125161049891117e1 8.227362994417033e1 8.330850481149509e1
      8.435639680218911e1 8.541746965150809e1 8.649188915424313e1 8.757982319062778e1
      8.868144175256836e1 8.979691697020657e1 9.092642313881477e1 9.207013674602951e1
      9.322823649942910e1 9.440090335445591e1 9.558832054269200e1 9.679067360048897e1
      9.800815039795800e1 9.924094116832604e1 1.004892385376587e2
      </PP_R>
    <PP_RAB>
      8.768095822639578e-7 8.878384891048292e-7 8.990061225159444e-7 9.103142274627444e-7
      9.217645708596345e-7 9.333589418460663e-7 9.450991520660947e-7 9.569870359514534e-7
      9.690244510081833e-7 9.812132781068794e-7 9.935554217765741e-7 1.006052810502325e-6
      1.018707397026548e-6 1.031521158654132e-6 1.044496097561402e-6 1.057634241108960e-6
      1.070937642158464e-6 1.084408379393397e-6 1.098048557643853e-6 1.111860308215440e-6
      1.125845789222283e-6 1.140007185924243e-6 1.154346711068367e-6 1.168866605234629e-6
      1.183569137186040e-6 1.198456604223125e-6 1.213531332542898e-6 1.228795677602331e-6
      1.244252024486392e-6 1.259902788280731e-6 1.275750414449030e-6 1.291797379215122e-6
      1.308046189949898e-6 1.324499385563094e-6 1.341159536899999e-6 1.358029247143155e-6
      1.375111152219110e-6 1.392407921210284e-6 1.409922256772022e-6 1.427656895554891e-6
      1.445614608632281e-6 1.463798201933396e-6 1.482210516681683e-6 1.500854429838781e-6
      1.519732854554055e-6 1.538848740619773e-6 1.558205074932026e-6 1.577804881957429e-6
      1.597651224205705e-6 1.617747202708212e-6 1.638095957502475e-6 1.658700668122829e-6
      1.679564554097230e-6 1.700690875450309e-6 1.722082933212759e-6 1.743744069937130e-6
      1.765677670220103e-6 1.787887161231347e-6 1.810376013249017e-6 1.833147740201997e-6
      1.856205900218951e-6 1.879554096184295e-6 1.903195976301151e-6 1.927135234661384e-6
      1.951375611822821e-6 1.975920895393711e-6 2.000774920624548e-6 2.025941571007340e-6
      2.051424778882412e-6 2.077228526052841e-6 2.103356844406620e-6 2.129813816546651e-6
      2.156603576428657e-6 2.183730310007122e-6 2.211198255889362e-6 2.239011705997802e-6
      2.267175006240609e-6 2.295692557190744e-6 2.324568814773561e-6 2.353808290963061e-6
      2.383415554486883e-6 2.413395231540191e-6 2.443752006508517e-6 2.474490622699712e-6
      2.505615883085095e-6 2.537132651049924e-6 2.569045851153318e-6 2.601360469897719e-6
      2.634081556508046e-6 2.667214223720662e-6 2.700763648582224e-6 2.734735073258623e-6
      2.769133805854080e-6 2.803965221240546e-6 2.839234761897545e-6 2.874947938762558e-6
      2.911110332092131e-6 2.947727592333792e-6 2.984805441008951e-6 3.022349671606905e-6