<UPF version="2.0.1">
  <PP_INFO>
Generated using "atomic" code by A. Dal Corso  v.6.2.2
Author: ADC
Generation date:  2May2018
Pseudopotential type: USPP
Element: Zr
Functional: LDA
    Suggested minimum cutoff for wavefunctions:  46. Ry
    Suggested minimum cutoff for charge density: 267. Ry
    The Pseudo was generated with a Scalar-Relativistic Calculation
    Local Potential by smoothing AE potential with Bessel fncs, cutoff radius:   1.5000
    Pseudopotential contains additional information for GIPAW reconstruction.
    Valence configuration:
    nl pn  l   occ       Rcut    Rcut US       E pseu
    4S  1  0  2.00      1.200      1.300    -4.006515
    5S  2  0  2.00      1.200      1.300    -0.337743
    4P  2  1  6.00      1.200      1.500    -2.388701
    5P  3  1  0.00      1.200      1.500    -0.113948
    4D  3  2  2.00      1.200      1.600    -0.274623
    Generation configuration:
    4S  1  0  2.00      1.200      1.300    -4.006559
    5S  2  0  2.00      1.200      1.300    -0.337756
    4P  2  1  6.00      1.200      1.500    -2.388735
    5P  3  1  0.00      1.200      1.500    -0.113954
    4D  3  2  2.00      1.200      1.600    -0.274648
    4D  3  2  0.00      1.200      1.600     0.500000
    Pseudization used: troullier-martins

    <PP_INPUTFILE>
 &amp;input
   title='Zr',
   zed=40.,
   rel=1,
   config='[Kr] 5s2 5p0 4d2',
   iswitch=3,
   dft='LDA'
 /
 &amp;inputp
   lpaw=.false.,
   use_xsd=.FALSE.,
   pseudotype=3,
   file_pseudopw='Zr.pz-spn-rrkjus_psl.1.0.0.UPF',
   author='ADC',
   lloc=-1,
   rcloc=1.5,
   which_augfun='PSQ',
   rmatch_augfun_nc=.true.,
   nlcc=.true.,
   new_core_ps=.true.,
   rcore=1.2,
   tm=.true.
 /
6
4S  1  0  2.00  0.00  1.20  1.30  0.0
5S  2  0  2.00  0.00  1.20  1.30  0.0
4P  2  1  6.00  0.00  1.20  1.50  0.0
5P  3  1  0.00  0.00  1.20  1.50  0.0
4D  3  2  2.00  0.00  1.20  1.60  0.0
4D  3  2  0.00  0.50  1.20  1.60  0.0
</PP_INPUTFILE>
  </PP_INFO>
  <!--
 END OF HUMAN READABLE SECTION 
-->
  <PP_HEADER generated="Generated using &quot;atomic&quot; code by A. Dal Corso  v.6.2.2" author="ADC" date=" 2May2018" comment="" element="Zr" pseudo_type="USPP" relativistic="scalar" is_ultrasoft="true" is_paw="false" is_coulomb="false" has_so="false" has_wfc="false" has_gipaw="true" paw_as_gipaw="false" core_correction="true" functional="LDA" z_valence="1.200000000000e1" total_psenergy="-9.894320551225e1" wfc_cutoff="4.553540042866e1" rho_cutoff="2.671602071961e2" l_max="2" l_max_rho="4" l_local="-1" mesh_size="1225" number_of_wfc="5" number_of_proj="6"/>
  <PP_MESH dx="1.250000000000e-2" mesh="1225" xmin="-7.000000000000e0" rmax="1.000000000000e2" zmesh="4.000000000000e1">
    <PP_R>
      2.279704913886290e-5 2.308380071672556e-5 2.337415918541455e-5 2.366816991403135e-5
      2.396587884235049e-5 2.426733248799772e-5 2.457257795371846e-5 2.488166293473778e-5
      2.519463572621277e-5 2.551154523077886e-5 2.583244096619093e-5 2.615737307306047e-5
      2.648639232269026e-5 2.681955012500742e-5 2.715689853659645e-5 2.749849026883295e-5
      2.784437869612008e-5 2.819461786422830e-5 2.854926249874018e-5 2.890836801360144e-5
      2.927199051977936e-5 2.964018683403032e-5 3.001301448777753e-5 3.039053173610037e-5
      3.077279756683702e-5 3.115987170980123e-5 3.155181464611536e-5 3.194868761766061e-5
      3.235055263664620e-5 3.275747249529900e-5 3.316951077567479e-5 3.358673185959317e-5
      3.400920093869735e-5 3.443698402464043e-5 3.487014795939998e-5 3.530876042572204e-5
      3.575288995769685e-5 3.620260595146739e-5 3.665797867607258e-5 3.711907928442717e-5
      3.758597982443931e-5 3.805875325026830e-5 3.853747343372376e-5 3.902221517580831e-5
      3.951305421840543e-5 4.001006725611411e-5 4.051333194823266e-5 4.102292693089316e-5
      4.153893182934835e-5 4.206142727041353e-5 4.259049489506435e-5 4.312621737119356e-5
      4.366867840652800e-5 4.421796276170802e-5 4.477415626353175e-5 4.533734581836538e-5
      4.590761942572268e-5 4.648506619201503e-5 4.706977634447443e-5 4.766184124525191e-5
      4.826135340569273e-5 4.886840650079167e-5 4.948309538382990e-5 5.010551610119597e-5
      5.073576590739335e-5 5.137394328023647e-5 5.202014793623824e-5 5.267448084619085e-5
      5.333704425094270e-5 5.400794167737386e-5 5.468727795457213e-5 5.537515923021292e-5
      5.607169298714507e-5 5.677698806018517e-5 5.749115465312340e-5 5.821430435594284e-5
      5.894655016225582e-5 5.968800648695933e-5 6.043878918411258e-5 6.119901556503957e-5
      6.196880441665896e-5 6.274827602004497e-5 6.353755216922147e-5 6.433675619019250e-5
      6.514601296021246e-5 6.596544892729804e-5 6.679519212998626e-5 6.763537221734063e-5
      6.848612046920922e-5 6.934756981673720e-5 7.021985486313782e-5 7.110311190472418e-5
      7.199747895220607e-5 7.290309575225419e-5 7.382010380933616e-5 7.474864640782650e-5
      7.568886863439538e-5 7.664091740067858e-5 7.760494146623273e-5 7.858109146177952e-5
      7.956951991274170e-5 8.057038126307566e-5 8.158383189940372e-5 8.261003017544954e-5
      8.364913643678181e-5 8.470131304586779e-5 8.576672440744336e-5 8.684553699420134e-5
      8.793791937280321e-5 8.904404223021825e-5 9.016407840039326e-5 9.129820289125858e-5
      9.244659291207331e-5 9.360942790111451e-5 9.478688955371519e-5 9.597916185065408e-5
      9.718643108690326e-5 9.840888590073707e-5 9.964671730320728e-5 1.009001187079890e-4
      1.021692859616017e-4 1.034544173740109e-4 1.047557137496145e-4 1.060733784186185e-4
      1.074076172688085e-4 1.087586387777192e-4 1.101266540452101e-4 1.115118768264501e-4
      1.129145235653167e-4 1.143348134282168e-4 1.157729683383312e-4 1.172292130102903e-4
      1.187037749852869e-4 1.201968846666297e-4 1.217087753557441e-4 1.232396832886263e-4
      1.247898476727554e-4 1.263595107244704e-4 1.279489177068163e-4 1.295583169678681e-4
      1.311879599795346e-4 1.328381013768519e-4 1.345089989977705e-4 1.362009139234431e-4
      1.379141105190193e-4 1.396488564749525e-4 1.414054228488277e-4 1.431840841077147e-4
      1.449851181710535e-4 1.468088064540813e-4 1.486554339118024e-4 1.505252890835140e-4
      1.524186641378910e-4 1.543358549186375e-4 1.562771609907140e-4 1.582428856871437e-4
      1.602333361564096e-4 1.622488234104472e-4 1.642896623732403e-4 1.663561719300294e-4
      1.684486749771367e-4 1.705674984724206e-4 1.727129734863633e-4 1.748854352538003e-4
      1.770852232263031e-4 1.793126811252175e-4 1.815681569953723e-4 1.838520032594609e-4
      1.861645767731084e-4 1.885062388806319e-4 1.908773554714990e-4 1.932782970375018e-4
      1.957094387306443e-4 1.981711604217624e-4 2.006638467598790e-4 2.031878872323053e-4
      2.057436762255008e-4 2.083316130866952e-4 2.109521021862883e-4 2.136055529810336e-4
      2.162923800780158e-4 2.190130032994356e-4 2.217678477482065e-4 2.245573438743778e-4
      2.273819275423956e-4 2.302420400992035e-4 2.331381284432082e-4 2.360706450941053e-4
      2.390400482635876e-4 2.420468019269423e-4 2.450913758955457e-4 2.481742458902753e-4
      2.512958936158396e-4 2.544568068360467e-4 2.576574794500188e-4 2.608984115693627e-4
      2.641801095963164e-4 2.675030863028732e-4 2.708678609109038e-4 2.742749591732872e-4
      2.777249134560577e-4 2.812182628215916e-4 2.847555531128344e-4 2.883373370385906e-4
      2.919641742598864e-4 2.956366314774155e-4 2.993552825200906e-4 3.031207084347025e-4
      3.069334975767109e-4 3.107942457021773e-4 3.147035560608500e-4 3.186620394904267e-4
      3.226703145119969e-4 3.267290074266870e-4 3.308387524135235e-4 3.350001916285206e-4
      3.392139753050234e-4 3.434807618553037e-4 3.478012179734404e-4 3.521760187394935e-4
      3.566058477249814e-4 3.610913970996970e-4 3.656333677398556e-4 3.702324693376100e-4
      3.748894205119430e-4 3.796049489209486e-4 3.843797913755358e-4 3.892146939545523e-4
      3.941104121213622e-4 3.990677108418905e-4 4.040873647041469e-4 4.091701580392606e-4
      4.143168850440314e-4 4.195283499050239e-4 4.248053669242271e-4 4.301487606462845e-4
      4.355593659873379e-4 4.410380283654791e-4 4.465856038328509e-4 4.522029592094079e-4
      4.578909722183544e-4 4.636505316232970e-4 4.694825373671102e-4 4.753879007125564e-4
      4.813675443846732e-4 4.874224027149499e-4 4.935534217873196e-4 4.997615595859858e-4
      5.060477861451098e-4 5.124130837003814e-4 5.188584468424935e-4 5.253848826725507e-4
      5.319934109594294e-4 5.386850642991194e-4 5.454608882760693e-4 5.523219416265611e-4
      5.592692964041400e-4 5.663040381471243e-4 5.734272660482231e-4 5.806400931262893e-4
      5.879436464002277e-4 5.953390670650970e-4 6.028275106704219e-4 6.104101473007509e-4
      6.180881617584850e-4 6.258627537490035e-4 6.337351380681236e-4 6.417065447919108e-4
      6.497782194688837e-4 6.579514233146328e-4 6.662274334088871e-4 6.746075428950622e-4
      6.830930611823144e-4 6.916853141501393e-4 7.003856443555456e-4 7.091954112428274e-4
      7.181159913559859e-4 7.271487785538120e-4 7.362951842276822e-4 7.455566375220929e-4
      7.549345855579626e-4 7.644304936587522e-4 7.740458455794225e-4 7.837821437382722e-4
      7.936409094516988e-4 8.036236831719016e-4 8.137320247275857e-4 8.239675135676841e-4
      8.343317490081521e-4 8.448263504818641e-4 8.554529577916510e-4 8.662132313665257e-4
      8.771088525211258e-4 8.881415237184241e-4 8.993129688357415e-4 9.106249334341058e-4
      9.220791850310002e-4 9.336775133765405e-4 9.454217307331271e-4 9.573136721586167e-4
      9.693551957930502e-4 9.815481831489954e-4 9.938945394055329e-4 1.006396193705946e-3
      1.019055099459156e-3 1.031873234644939e-3 1.044852602122998e-3 1.057995229945908e-3
      1.071303171676004e-3 1.084778506706259e-3 1.098423340585186e-3 1.112239805345838e-3
      1.126230059838945e-3 1.140396290070235e-3 1.154740709542003e-3 1.169265559598975e-3
      1.183973109778523e-3 1.198865658165287e-3 1.213945531750249e-3 1.229215086794340e-3
      1.244676709196599e-3 1.260332814866985e-3 1.276185850103860e-3 1.292238291976236e-3
      1.308492648710810e-3 1.324951460083895e-3 1.341617297818253e-3 1.358492765984937e-3
      1.375580501410182e-3 1.392883174087410e-3 1.410403487594434e-3 1.428144179515882e-3
      1.446108021870962e-3 1.464297821546589e-3 1.482716420735968e-3 1.501366697382699e-3
      1.520251565630449e-3 1.539373976278306e-3 1.558736917241836e-3 1.578343414019959e-3
      1.598196530167689e-3 1.618299367774814e-3 1.638655067950609e-3 1.659266811314641e-3
      1.680137818493744e-3 1.701271350625255e-3 1.722670709866564e-3 1.744339239911091e-3
      1.766280326510741e-3 1.788497398004930e-3 1.810993925856286e-3 1.833773425193053e-3
      1.856839455358348e-3 1.880195620466311e-3 1.903845569965258e-3 1.927792999207918e-3
      1.952041650028829e-3 1.976595311329017e-3 2.001457819668015e-3 2.026633059863331e-3
      2.052124965597470e-3 2.077937520032564e-3 2.104074756432760e-3 2.130540758794422e-3
      2.157339662484262e-3 2.184475654885509e-3 2.211952976052183e-3 2.239775919371618e-3
      2.267948832235314e-3 2.296476116718222e-3 2.325362230266587e-3 2.354611686394417e-3
      2.384229055388741e-3 2.414218965023721e-3 2.444586101283751e-3 2.475335209095658e-3
      2.506471093070094e-3 2.537998618252277e-3 2.569922710882162e-3 2.602248359164166e-3
      2.634980614046608e-3 2.668124590010905e-3 2.701685465870733e-3 2.735668485581224e-3
      2.770078959058349e-3 2.804922263008594e-3 2.840203841769094e-3 2.875929208158311e-3
      2.912103944337425e-3 2.948733702682565e-3 2.985824206667991e-3 3.023381251760417e-3
      3.061410706324549e-3 3.099918512540032e-3 3.138910687329933e-3 3.178393323300889e-3
      3.218372589695106e-3 3.258854733354293e-3 3.299846079695757e-3 3.341353033700764e-3
      3.383382080915318e-3 3.425939788463562e-3 3.469032806073882e-3 3.512667867117955e-3
      3.556851789662842e-3 3.601591477536332e-3 3.646893921405685e-3 3.692766199869921e-3
      3.739215480565878e-3 3.786249021288167e-3 3.833874171123211e-3 3.882098371597575e-3
      3.930929157840692e-3 3.980374159762258e-3 4.030441103244423e-3 4.081137811348960e-3
      4.132472205539664e-3 4.184452306920064e-3 4.237086237486754e-3 4.290382221398471e-3
      4.344348586261129e-3 4.398993764429038e-3 4.454326294322462e-3 4.510354821761772e-3
      4.567088101318369e-3 4.624534997682606e-3 4.682704487048927e-3 4.741605658518383e-3
      4.801247715518856e-3 4.861639977243092e-3 4.922791880104851e-3 4.984712979213379e-3
      5.047412949866387e-3 5.110901589061854e-3 5.175188817028820e-3 5.240284678777445e-3
      5.306199345668578e-3 5.372943117003016e-3 5.440526421630825e-3 5.508959819580850e-3
      5.578254003710745e-3 5.648419801377772e-3 5.719468176130562e-3 5.791410229422222e-3
      5.864257202344946e-3 5.938020477386453e-3 6.012711580208554e-3 6.088342181448020e-3
      6.164924098540165e-3 6.242469297565343e-3 6.320989895118662e-3 6.400498160203252e-3
      6.481006516147289e-3 6.562527542545185e-3 6.645073977223170e-3 6.728658718229598e-3
      6.813294825850315e-3 6.898995524649330e-3 6.985774205535186e-3 7.073644427853326e-3
      7.162619921504753e-3 7.252714589091383e-3 7.343942508088324e-3 7.436317933043518e-3
      7.529855297805057e-3 7.624569217776483e-3 7.720474492200498e-3 7.817586106471347e-3
      7.915919234476334e-3 8.015489240966772e-3 8.116311683958743e-3 8.218402317164102e-3
      8.321777092451992e-3 8.426452162341359e-3 8.532443882524847e-3 8.639768814424365e-3
      8.748443727778886e-3 8.858485603264722e-3 8.969911635148796e-3 9.082739233975289e-3
      9.196986029286059e-3 9.312669872375325e-3 9.429808839078927e-3 9.548421232598727e-3
      9.668525586362536e-3 9.790140666919974e-3 9.913285476874824e-3 1.003797925785417e-2
      1.016424149351498e-2 1.029209191258847e-2 1.042155049196271e-2 1.055263745980414e-2
      1.068537329871817e-2 1.081977874894969e-2 1.095587481162374e-2 1.109368275202700e-2
      1.123322410293054e-2 1.137452066795434e-2 1.151759452497415e-2 1.166246802957122e-2
      1.180916381852537e-2 1.195770481335210e-2 1.210811422388407e-2 1.226041555189766e-2
      1.241463259478525e-2 1.257078944927352e-2 1.272891051518873e-2 1.288902049926910e-2
      1.305114441902541e-2 1.321530760664994e-2 1.338153571297476e-2 1.354985471147968e-2
      1.372029090235066e-2 1.389287091658929e-2 1.406762172017390e-2 1.424457061827308e-2
      1.442374525951217e-2 1.460517364029340e-2 1.478888410917038e-2 1.497490537127764e-2
      1.516326649281583e-2 1.535399690559345e-2 1.554712641162550e-2 1.574268518779026e-2
      1.594070379054435e-2 1.614121316069730e-2 1.634424462824619e-2 1.654982991727086e-2
      1.675800115089099e-2 1.696879085628537e-2 1.718223196977431e-2 1.739835784196605e-2
      1.761720224296784e-2 1.783879936766257e-2 1.806318384105182e-2 1.829039072366605e-2
      1.852045551704295e-2 1.875341416927456e-2 1.898930308062422e-2 1.922815910921427e-2
      1.947001957678512e-2 1.971492227452692e-2 1.996290546898443e-2 2.021400790803632e-2
      2.046826882694956e-2 2.072572795451001e-2 2.098642551923019e-2 2.125040225563496e-2
      2.151769941062645e-2 2.178835874992896e-2 2.206242256461489e-2 2.233993367771289e-2
      2.262093545089900e-2 2.290547179127195e-2 2.319358715821384e-2 2.348532657033689e-2
      2.378073561251786e-2 2.407986044302055e-2 2.438274780070833e-2 2.468944501234705e-2
      2.500000000000000e-2 2.531446128851586e-2 2.563287801311072e-2 2.595529992704564e-2
      2.628177740940062e-2 2.661236147294649e-2 2.694710377211579e-2 2.728605661107380e-2
      2.762927295189121e-2 2.797680642281954e-2 2.832871132667066e-2 2.868504264930181e-2
      2.904585606820709e-2 2.941120796121728e-2 2.978115541530897e-2 3.015575623552452e-2
      3.053506895400425e-2 3.091915283913212e-2 3.130806790479662e-2 3.170187491976801e-2
      3.210063541719354e-2 3.250441170421228e-2 3.291326687169056e-2 3.332726480408009e-2
      3.374647018940010e-2 3.417094852934491e-2 3.460076614951879e-2 3.503599020979935e-2
      3.547668871483145e-2 3.592293052465313e-2 3.637478536545503e-2 3.683232384047540e-2
      3.729561744103177e-2 3.776473855769184e-2 3.823976049158450e-2 3.872075746585332e-2
      3.920780463725423e-2 3.970097810789860e-2 4.020035493714459e-2 4.070601315363778e-2
      4.121803176750321e-2 4.173649078269108e-2 4.226147120947729e-2 4.279305507712163e-2
      4.333132544668491e-2 4.387636642400746e-2 4.442826317285097e-2 4.498710192820523e-2
      4.555297000976275e-2 4.612595583556253e-2 4.670614893580556e-2 4.729363996684426e-2
      4.788852072534743e-2 4.849088416264387e-2 4.910082439924621e-2 4.971843673955729e-2
      5.034381768676193e-2 5.097706495790540e-2 5.161827749916219e-2 5.226755550129642e-2
      5.292500041531687e-2 5.359071496832900e-2 5.426480317958609e-2 5.494737037674257e-2
      5.563852321231172e-2 5.633836968033021e-2 5.704701913323261e-2 5.776458229893762e-2
      5.849117129814980e-2 5.922689966187853e-2 5.997188234917744e-2 6.072623576510722e-2
      6.149007777892376e-2 6.226352774249580e-2 6.304670650895375e-2 6.383973645157317e-2
      6.464274148289616e-2 6.545584707409255e-2 6.627918027456521e-2 6.711286973180179e-2
      6.795704571147612e-2 6.881184011780269e-2 6.967738651414630e-2 7.055382014389249e-2
      7.144127795157916e-2 7.233989860429403e-2 7.324982251334262e-2 7.417119185618671e-2
      7.510415059866080e-2 7.604884451746665e-2 7.700542122295078e-2 7.797403018216988e-2
      7.895482274224421e-2 7.994795215400686e-2 8.095357359594907e-2 8.197184419846684e-2
      8.300292306841378e-2 8.404697131396077e-2 8.510415206977044e-2 8.617463052248693e-2
      8.725857393654604e-2 8.835615168031183e-2 8.946753525253950e-2 9.059289830917352e-2
      9.173241669048117e-2 9.288626844852761e-2 9.405463387499786e-2 9.523769552936658e-2
      9.643563826742431e-2 9.764864927016138e-2 9.887691807301442e-2 1.001206365954832e-1
      1.013799991711169e-1 1.026552025778803e-1 1.039464460689002e-1 1.052539314035990e-1
      1.065778628792206e-1 1.079184473627511e-1 1.092758943232439e-1 1.106504158645484e-1
      1.120422267584516e-1 1.134515444782377e-1 1.148785892326672e-1 1.163235840003867e-1
      1.177867545647686e-1 1.192683295491901e-1 1.207685404527571e-1 1.222876216864752e-1
      1.238258106098778e-1 1.253833475681141e-1 1.269604759295020e-1 1.285574421235573e-1
      1.301744956794963e-1 1.318118892652272e-1 1.334698787268295e-1 1.351487231285291e-1
      1.368486847931801e-1 1.385700293432506e-1 1.403130257423289e-1 1.420779463371487e-1
      1.438650669001433e-1 1.456746666725370e-1 1.475070284079755e-1 1.493624384167081e-1
      1.512411866103238e-1 1.531435665470496e-1 1.550698754776218e-1 1.570204143917291e-1
      1.589954880650457e-1 1.609954051068516e-1 1.630204780082528e-1 1.650710231910109e-1
      1.671473610569818e-1 1.692498160381819e-1 1.713787166474796e-1 1.735343955299259e-1
      1.757171895147325e-1 1.779274396678999e-1 1.801654913455116e-1 1.824316942476959e-1
      1.847264024732663e-1 1.870499745750522e-1 1.894027736159212e-1 1.917851672255107e-1
      1.941975276576694e-1 1.966402318486223e-1 1.991136614758695e-1 2.016182030178219e-1
      2.041542478141912e-1 2.067221921271369e-1 2.093224372031816e-1 2.119553893359095e-1
      2.146214599294475e-1 2.173210655627500e-1 2.200546280546904e-1 2.228225745299684e-1
      2.256253374858532e-1 2.284633548597581e-1 2.313370700976722e-1 2.342469322234484e-1
      2.371933959089632e-1 2.401769215451628e-1 2.431979753139972e-1 2.462570292612645e-1
      2.493545613703682e-1 2.524910556370013e-1 2.556670021447752e-1 2.588828971417923e-1
      2.621392431181893e-1 2.654365488846503e-1 2.687753296519089e-1 2.721561071112537e-1
      2.755794095160402e-1 2.790457717642341e-1 2.825557354819898e-1 2.861098491082780e-1
      2.897086679805851e-1 2.933527544216803e-1 2.970426778274849e-1 3.007790147560385e-1
      3.045623490175869e-1 3.083932717658066e-1 3.122723815901703e-1 3.162002846094806e-1
      3.201775945665760e-1 3.242049329242284e-1 3.282829289622508e-1 3.324122198758197e-1
      3.365934508750427e-1 3.408272752857691e-1 3.451143546516774e-1 3.494553588376412e-1
      3.538509661343952e-1 3.583018633645238e-1 3.628087459897731e-1 3.673723182197235e-1
      3.719932931218213e-1 3.766723927327948e-1 3.814103481714795e-1 3.862078997530507e-1
      3.910657971047043e-1 3.959847992827858e-1 4.009656748913919e-1 4.060092022024714e-1
      4.111161692774266e-1 4.162873740902535e-1 4.215236246522262e-1 4.268257391381465e-1
      4.321945460141916e-1 4.376308841673572e-1 4.431356030365410e-1 4.487095627452664e-1
      4.543536342360767e-1 4.600686994066267e-1 4.658556512474754e-1 4.717153939816221e-1
      4.776488432057917e-1 4.836569260334955e-1 4.897405812399005e-1 4.959007594085083e-1
      5.021384230796917e-1 5.084545469010907e-1 5.148501177799009e-1 5.213261350370859e-1
      5.278836105635156e-1 5.345235689780836e-1 5.412470477878019e-1 5.480550975499119e-1
      5.549487820360416e-1 5.619291783984157e-1 5.689973773381682e-1 5.761544832757650e-1
      5.834016145235681e-1 5.907399034605812e-1 5.981704967093789e-1 6.056945553152745e-1
      6.133132549277343e-1 6.210277859840712e-1 6.288393538954599e-1 6.367491792352774e-1
      6.447584979298266e-1 6.528685614514497e-1 6.610806370140700e-1 6.693960077712039e-1
      6.778159730164476e-1 6.863418483865025e-1 6.949749660667423e-1 7.037166749993663e-1
      7.125683410941830e-1 7.215313474420259e-1 7.306070945308734e-1 7.397970004646746e-1
      7.491025011849256e-1 7.585250506950491e-1 7.680661212875734e-1 7.777272037741916e-1
      7.875098077186991e-1 7.974154616728625e-1 8.074457134152681e-1 8.176021301931543e-1
      8.278862989673078e-1 8.382998266600241e-1 8.488443404061890e-1 8.595214878075309e-1
      8.703329371900512e-1 8.812803778647137e-1 8.923655203913977e-1 9.035900968461732e-1
      9.149558610919510e-1 9.264645890525149e-1 9.381180789900249e-1 9.499181517859951e-1
      9.618666512258034e-1 9.739654442868005e-1 9.862164214300137e-1 9.986214968955483e-1
      1.011182609001686e0 1.023901720447745e0 1.036780818620770e0 1.049821915906050e0
      1.063027050001569e0 1.076398284236399e0 1.089937707893088e0 1.103647436534132e0
      1.117529612332521e0 1.131586404406469e0 1.145820009158338e0 1.160232650617824e0
      1.174826580789484e0 1.189604080004593e0 1.204567457277470e0 1.219719050666262e0
      1.235061227638255e0 1.250596385439820e0 1.266326951470967e0 1.282255383664643e0
      1.298384170870787e0 1.314715833245211e0 1.331252922643392e0 1.347998023019189e0
      1.364953750828606e0 1.382122755438612e0 1.399507719541104e0 1.417111359572097e0
      1.434936426136156e0 1.452985704436200e0 1.471262014708687e0 1.489768212664275e0
      1.508507189934051e0 1.527481874521334e0 1.546695231259197e0 1.566150262273723e0
      1.585850007453084e0 1.605797544922549e0 1.625995991525425e0 1.646448503310092e0
      1.667158276023130e0 1.688128545608653e0 1.709362588713956e0 1.730863723201466e0
      1.752635308667196e0 1.774680746965673e0 1.797003482741476e0 1.819607003967493e0
      1.842494842489896e0 1.865670574580023e0 1.889137821493167e0 1.912900250034397e0
      1.936961573131524e0 1.961325550415229e0 1.985995988806533e0 2.010976743111633e0
      2.036271716624204e0 2.061884861735328e0 2.087820180551032e0 2.114081725517650e0
      2.140673600055017e0 2.167599959197622e0 2.194865010243873e0 2.222473013413458e0
      2.250428282513046e0 2.278735185610311e0 2.307398145716447e0 2.336421641477294e0
      2.365810207873104e0 2.395568436927172e0 2.425700978423337e0 2.456212540632502e0
      2.487107891048349e0 2.518391857132228e0 2.550069327067492e0 2.582145250523271e0
      2.614624639427856e0 2.647512568751851e0 2.680814177301114e0 2.714534668519740e0
      2.748679311303091e0 2.783253440821059e0 2.818262459351733e0 2.853711837125476e0
      2.889607113179692e0 2.925953896224298e0 2.962757865518083e0 3.000024771756139e0
      3.037760437968374e0 3.075970760429414e0 3.114661709579886e0 3.153839330959304e0
      3.193509746150726e0 3.233679153737224e0 3.274353830270465e0 3.315540131251416e0
      3.357244492123388e0 3.399473429277628e0 3.442233541071468e0 3.485531508859379e0
      3.529374098036924e0 3.573768159097850e0 3.618720628704528e0 3.664238530771780e0
      3.710328977564415e0 3.756999170808525e0 3.804256402816740e0 3.852108057627723e0
      3.900561612159878e0 3.949624637379686e0 3.999304799484667e0 4.049609861101208e0
      4.100547682497550e0 4.152126222811902e0 4.204353541296136e0 4.257237798575028e0
      4.310787257921358e0 4.365010286547111e0 4.419915356910812e0 4.475511048041417e0
      4.531806046878785e0 4.588809149631000e0 4.646529263148858e0 4.704975406317512e0
      4.764156711465750e0 4.824082425792915e0 4.884761912813774e0 4.946204653821644e0
      5.008420249369796e0 5.071418420771622e0 5.135209011619584e0 5.199801989323266e0
      5.265207446666869e0 5.331435603386151e0 5.398496807765353e0 5.466401538254105e0
      5.535160405104679e0 5.604784152029932e0 5.675283657881953e0 5.746669938351970e0
      5.818954147691557e0 5.892147580455465e0 5.966261673266496e0 6.041308006602419e0
      6.117298306605511e0 6.194244446914759e0 6.272158450521115e0 6.351052491646182e0
      6.430938897644374e0 6.511830150929169e0 6.593738890923481e0 6.676677916034554e0
      6.760660185653826e0 6.845698822181764e0 6.931807113078349e0 7.018998512939238e0
      7.107286645598023e0 7.196685306255082e0 7.287208463633003e0 7.378870262159306e0
      7.471685024176513e0 7.565667252179996e0 7.660831631084115e0 7.757193030516660e0
      7.854766507142355e0 7.953567307015452e0 8.053610867961913e0 8.154912821991708e0
      8.257488997741223e0 8.361355422946627e0 8.466528326948190e0 8.573024143226110e0
      8.680859511968375e0 8.790051282670721e0 8.900616516769478e0 9.012572490307443e0
      9.125936696633223e0 9.240726849134731e0 9.356960884006805e0 9.474656963053889e0
      9.593833476527807e0 9.714509046001220e0 9.836702527277410e0 9.960433013336397e0
      1.008571983731838e1 1.021258257554451e1 1.034104105057572e1 1.047111533431011e1
      1.060282575111912e1 1.073619288102335e1 1.087123756290822e1 1.100798089777997e1
      1.114644425206294e1 1.128664926093789e1 1.142861783172272e1 1.157237214729549e1
      1.171793466956043e1 1.186532814295782e1 1.201457559801773e1 1.216570035495868e1
      1.231872602733142e1 1.247367652570855e1 1.263057606142074e1 1.278944915033961e1
      1.295032061670855e1 1.311321559702151e1 1.327815954395053e1 1.344517823032294e1
      1.361429775314824e1 1.378554453769597e1 1.395894534162465e1 1.413452725916263e1
      1.431231772534180e1 1.449234452028416e1 1.467463577354272e1 1.485921996849671e1
      1.504612594680206e1 1.523538291289820e1 1.542702043857109e1 1.562106846757403e1
      1.581755732030635e1 1.601651769855102e1 1.621798069027198e1 1.642197777447149e1
      1.662854082610905e1 1.683770212108174e1 1.704949434126739e1 1.726395057963136e1
      1.748110434539715e1 1.770098956928249e1 1.792364060880100e1 1.814909225363054e1
      1.837737973104935e1 1.860853871144018e1 1.884260531386404e1 1.907961611170379e1
      1.931960813837875e1 1.956261889313141e1 1.980868634688655e1 2.005784894818448e1
      2.031014562918860e1 2.056561581176856e1 2.082429941366022e1 2.108623685470259e1
      2.135146906315379e1 2.162003748208604e1 2.189198407586115e1 2.216735133668773e1
      2.244618229126046e1 2.272852050748331e1 2.301441010127703e1 2.330389574347221e1
      2.359702266678949e1 2.389383667290694e1 2.419438413961692e1 2.449871202807261e1
      2.480686789012565e1 2.511889987575655e1 2.543485674059778e1 2.575478785355235e1
      2.607874320450760e1 2.640677341214613e1 2.673892973185535e1 2.707526406373590e1
      2.741582896071147e1 2.776067763674013e1 2.810986397512901e1 2.846344253695403e1
      2.882146856958471e1 2.918399801531713e1 2.955108752011480e1 2.992279444245959e1
      3.029917686231446e1 3.068029359019817e1 3.106620417637490e1 3.145696892015891e1
      3.185264887933635e1 3.225330587970596e1 3.265900252473907e1 3.306980220536194e1
      3.348576910986048e1 3.390696823390971e1 3.433346539072981e1 3.476532722136913e1
      3.520262120511739e1 3.564541567004930e1 3.609377980370077e1 3.654778366387998e1
      3.700749818961366e1 3.747299521223180e1 3.794434746659133e1 3.842162860244080e1
      3.890491319592890e1 3.939427676125645e1 3.988979576247623e1 4.039154762544038e1
      4.089961074989818e1 4.141406452174663e1 4.193498932543410e1 4.246246655652105e1
      4.299657863439811e1 4.353740901516393e1 4.408504220466599e1 4.463956377170418e1
      4.520106036140159e1 4.576961970874281e1 4.634533065228246e1 4.692828314802692e1
      4.751856828348951e1 4.811627829192368e1 4.872150656673437e1 4.933434767607071e1
      4.995489737760302e1 5.058325263348452e1 5.121951162550245e1 5.186377377041883e1
      5.251613973550445e1 5.317671145426872e1 5.384559214238650e1 5.452288631382624e1
      5.520869979718029e1 5.590313975220051e1 5.660631468654292e1 5.731833447272146e1
      5.803931036527642e1 5.876935501815795e1 5.950858250232815e1 6.025710832358559e1
      6.101504944061252e1 6.178252428325063e1 6.255965277100564e1 6.334655633178460e1
      6.414335792087009e1 6.495018204013127e1 6.576715475747839e1 6.659440372656080e1
      6.743205820671275e1 6.828024908315119e1 6.913910888742601e1 7.000877181812908e1
      7.088937376186284e1 7.178105231447230e1 7.268394680254571e1 7.359819830518351e1
      7.452394967604320e1 7.546134556566009e1 7.641053244404874e1 7.737165862359037e1
      7.834487428220564e1 7.933033148682139e1 8.032818421713094e1 8.133858838965322e1
      8.236170188209615e1 8.339768455802423e1 8.444669829183837e1 8.550890699406892e1
      8.658447663698636e1 8.767357528053600e1 8.877637309859631e1 8.989304240557022e1
      9.102375768330896e1 9.216869560837486e1 9.332803507964838e1 9.450195724628029e1
      9.569064553599766e1 9.689428568376433e1 9.811306576080188e1 9.934717620397729e1
      1.005968098455578e2
      </PP_R>
    <PP_RAB>
      2.849631142357863e-7 2.885475089590695e-7 2.921769898176819e-7 2.958521239253918e-7