<UPF version="2.0.1">
  <PP_INFO>
Generated using "atomic" code by A. Dal Corso  v.6.3MaX
Author: ADC
Generation date:  4Sep2018
Pseudopotential type: USPP
Element:  B
Functional: PBESOL
    Suggested minimum cutoff for wavefunctions:  43. Ry
    Suggested minimum cutoff for charge density: 170. Ry
    The Pseudo was generated with a Scalar-Relativistic Calculation
    L component and cutoff radius for Local Potential:  2   1.2000
    Pseudopotential contains additional information for GIPAW reconstruction.
    Valence configuration:
    nl pn  l   occ       Rcut    Rcut US       E pseu
    2S  1  0  2.00      1.300      1.400    -0.688034
    2P  2  1  1.00      1.200      1.400    -0.261310
    Generation configuration:
    2S  1  0  2.00      1.300      1.400    -0.688030
    2S  1  0  0.00      1.300      1.400     0.050000
    2P  2  1  1.00      1.200      1.400    -0.261310
    2P  2  1  0.00      0.800      1.400     1.500000
    3D  3  2 -2.00      1.200      1.200     0.150000
    Pseudization used: troullier-martins

    <PP_INPUTFILE>
 &amp;input
   title='B',
   zed=5.0,
   rel=1,
   config='1s2.0 2s2.0 2p1.0 3d-2.0',
   iswitch=3,
   dft='PBESOL'
 /
 &amp;inputp
   lpaw = .false.,
   use_xsd=.FALSE.,
   pseudotype=3,
   file_pseudopw='B.pbesol-n-kjpaw_psl.0.1.UPF',
   author='ADC',
   lloc=2,
   which_augfun ='BESSEL',
   rmatch_augfun=1.30,
   nlcc=.true.,
   tm=.true.
 /
5
2S  1  0  2.00  0.00  1.30  1.40  0.0
2S  1  0  0.00  0.05  1.30  1.40  0.0
2P  2  1  1.00  0.00  1.20  1.40  0.0
2P  2  1  0.00  1.50  0.80  1.40  0.0
3D  3  2 -2.00  0.15  1.20  1.20  0.0
</PP_INPUTFILE>
  </PP_INFO>
  <!--
 END OF HUMAN READABLE SECTION 
-->
  <PP_HEADER generated="Generated using &quot;atomic&quot; code by A. Dal Corso  v.6.3MaX" author="ADC" date=" 4Sep2018" comment="" element=" B" pseudo_type="USPP" relativistic="scalar" is_ultrasoft="true" is_paw="false" is_coulomb="false" has_so="false" has_wfc="false" has_gipaw="true" paw_as_gipaw="false" core_correction="true" functional="PBESOL" z_valence="3.000000000000e0" total_psenergy="-5.732930984537e0" wfc_cutoff="4.255479640692e1" rho_cutoff="1.702191856277e2" l_max="2" l_max_rho="4" l_local="2" mesh_size="1059" number_of_wfc="2" number_of_proj="4"/>
  <PP_MESH dx="1.250000000000e-2" mesh="1059" xmin="-7.000000000000e0" rmax="1.000000000000e2" zmesh="5.000000000000e0">
    <PP_R>
      1.823763931109032e-4 1.846704057338044e-4 1.869932734833164e-4 1.893453593122508e-4
      1.917270307388040e-4 1.941386599039818e-4 1.965806236297477e-4 1.990533034779023e-4
      2.015570858097021e-4 2.040923618462309e-4 2.066595277295274e-4 2.092589845844837e-4
      2.118911385815220e-4 2.145564010000593e-4 2.172551882927716e-4 2.199879221506636e-4
      2.227550295689606e-4 2.255569429138265e-4 2.283940999899215e-4 2.312669441088115e-4
      2.341759241582349e-4 2.371214946722426e-4 2.401041159022201e-4 2.431242538888029e-4
      2.461823805346962e-4 2.492789736784099e-4 2.524145171689229e-4 2.555895009412849e-4
      2.588044210931696e-4 2.620597799623920e-4 2.653560862053983e-4 2.686938548767453e-4
      2.720736075095788e-4 2.754958721971234e-4 2.789611836751998e-4 2.824700834057763e-4
      2.860231196615749e-4 2.896208476117391e-4 2.932638294085806e-4 2.969526342754174e-4
      3.006878385955145e-4 3.044700260021464e-4 3.082997874697901e-4 3.121777214064664e-4
      3.161044337472434e-4 3.200805380489129e-4 3.241066555858613e-4 3.281834154471452e-4
      3.323114546347868e-4 3.364914181633082e-4 3.407239591605148e-4 3.450097389695485e-4
      3.493494272522239e-4 3.537437020936641e-4 3.581932501082540e-4 3.626987665469231e-4
      3.672609554057814e-4 3.718805295361202e-4 3.765582107557955e-4 3.812947299620153e-4
      3.860908272455419e-4 3.909472520063334e-4 3.958647630706393e-4 4.008441288095678e-4
      4.058861272591468e-4 4.109915462418918e-4 4.161611834899059e-4 4.213958467695268e-4
      4.266963540075416e-4 4.320635334189909e-4 4.374982236365770e-4 4.430012738417034e-4
      4.485735438971607e-4 4.542159044814814e-4 4.599292372249872e-4 4.657144348475428e-4
      4.715724012980465e-4 4.775040518956747e-4 4.835103134729007e-4 4.895921245203167e-4
      4.957504353332717e-4 5.019862081603597e-4 5.083004173537717e-4 5.146940495215400e-4
      5.211681036816997e-4 5.277235914183843e-4 5.343615370398902e-4 5.410829777387252e-4
      5.478889637536738e-4 5.547805585338976e-4 5.617588389051026e-4 5.688248952377934e-4
      5.759798316176486e-4 5.832247660180336e-4 5.905608304746893e-4 5.979891712626120e-4
      6.055109490751630e-4 6.131273392054286e-4 6.208395317298617e-4 6.286487316942361e-4
      6.365561593019334e-4 6.445630501046053e-4 6.526706551952296e-4 6.608802414035964e-4
      6.691930914942544e-4 6.776105043669423e-4 6.861337952595468e-4 6.947642959536108e-4
      7.035033549824258e-4 7.123523378417460e-4 7.213126272031461e-4 7.303856231300686e-4
      7.395727432965864e-4 7.488754232089160e-4 7.582951164297216e-4 7.678332948052327e-4
      7.774914486952262e-4 7.872710872058966e-4 7.971737384256580e-4 8.072009496639117e-4
      8.173542876928133e-4 8.276353389920873e-4 8.380457099969158e-4 8.485870273489480e-4
      8.592609381504680e-4 8.700691102217538e-4 8.810132323616813e-4 8.920950146116004e-4
      9.033161885225335e-4 9.146785074257346e-4 9.261837467066492e-4 9.378337040823222e-4
      9.496301998822956e-4 9.615750773330371e-4 9.736702028459526e-4 9.859174663090101e-4
      9.983187813820434e-4 1.010876085795763e-3 1.023591341654530e-3 1.036466535742945e-3
      1.049503679836277e-3 1.062704811014815e-3 1.076071991982164e-3 1.089607311387545e-3
      1.103312884152154e-3 1.117190851799620e-3 1.131243382790621e-3 1.145472672861717e-3
      1.159880945368428e-3 1.174470451632650e-3 1.189243471294419e-3 1.204202312668112e-3
      1.219349313103128e-3 1.234686839349100e-3 1.250217287925712e-3 1.265943085497149e-3
      1.281866689251277e-3 1.297990587283577e-3 1.314317298985923e-3 1.330849375440235e-3
      1.347589399817093e-3 1.364539987779365e-3 1.381703787890906e-3 1.399083482030402e-3
      1.416681785810425e-3 1.434501449001740e-3 1.452545255962978e-3 1.470816026075687e-3
      1.489316614184867e-3 1.508049911045055e-3 1.527018843771992e-3 1.546226376300014e-3
      1.565675509845155e-3 1.585369283374099e-3 1.605310774079032e-3 1.625503097858442e-3
      1.645949409804006e-3 1.666652904693562e-3 1.687616817490306e-3 1.708844423848269e-3
      1.730339040624127e-3 1.752104026395486e-3 1.774142781985652e-3 1.796458750995023e-3
      1.819055420339165e-3 1.841936320793628e-3 1.865105027545665e-3 1.888565160752842e-3
      1.912320386108701e-3 1.936374415415538e-3 1.960731007164366e-3 1.985393967122202e-3
      2.010367148926717e-3 2.035654454688374e-3 2.061259835600150e-3 2.087187292554901e-3
      2.113440876770531e-3 2.140024690422985e-3 2.166942887287231e-3 2.194199673386298e-3
      2.221799307648462e-3 2.249746102572733e-3 2.278044424902675e-3 2.306698696308725e-3
      2.335713394079090e-3 2.365093051819324e-3 2.394842260160725e-3 2.424965667477620e-3
      2.455467980613687e-3 2.486353965617419e-3 2.517628448486800e-3 2.549296315923414e-3
      2.581362516095975e-3 2.613832059413496e-3 2.646710019308188e-3 2.680001533028165e-3
      2.713711802440187e-3 2.747846094842429e-3 2.782409743787524e-3 2.817408149915948e-3
      2.852846781799851e-3 2.888731176797576e-3 2.925066941918844e-3 2.961859754700880e-3
      2.999115364095544e-3 3.036839591367589e-3 3.075038331004287e-3 3.113717551636419e-3
      3.152883296970898e-3 3.192541686735124e-3 3.232698917633175e-3 3.273361264314085e-3
      3.314535080352251e-3 3.356226799240192e-3 3.398442935393817e-3 3.441190085170276e-3
      3.484474927898703e-3 3.528304226923833e-3 3.572684830662807e-3 3.617623673675263e-3
      3.663127777746836e-3 3.709204252986376e-3 3.755860298936882e-3 3.803103205700451e-3
      3.850940355077386e-3 3.899379221719599e-3 3.948427374298556e-3 3.998092476687886e-3
      4.048382289160878e-3 4.099304669603051e-3 4.150867574739948e-3 4.203079061380405e-3
      4.255947287675435e-3 4.309480514392955e-3 4.363687106208554e-3 4.418575533012489e-3
      4.474154371233120e-3 4.530432305176994e-3 4.587418128385785e-3 4.645120745010314e-3
      4.703549171201821e-3 4.762712536520776e-3 4.822620085363375e-3 4.883281178406007e-3
      4.944705294067880e-3 5.006902029992029e-3 5.069881104544988e-3 5.133652358335286e-3
      5.198225755751070e-3 5.263611386517063e-3 5.329819467271097e-3 5.396860343160497e-3
      5.464744489458515e-3 5.533482513201116e-3 5.603085154844365e-3 5.673563289942619e-3
      5.744927930847887e-3 5.817190228430496e-3 5.890361473821458e-3 5.964453100176742e-3
      6.039476684463700e-3 6.115443949270018e-3 6.192366764635380e-3 6.270257149906177e-3
      6.349127275613591e-3 6.428989465375214e-3 6.509856197820686e-3 6.591740108541472e-3
      6.674653992065216e-3 6.758610803854912e-3 6.843623662333207e-3 6.929705850932205e-3
      7.016870820169007e-3 7.105132189747393e-3 7.194503750685933e-3 7.284999467472847e-3
      7.376633480248003e-3 7.469420107012325e-3 7.563373845865017e-3 7.658509377268931e-3
      7.754841566344401e-3 7.852385465191963e-3 7.951156315244264e-3 8.051169549647572e-3
      8.152440795673245e-3 8.254985877159509e-3 8.358820816983982e-3 8.463961839567263e-3
      8.570425373408035e-3 8.678228053650074e-3 8.787386724681484e-3 8.897918442766704e-3
      9.009840478711563e-3 9.123170320561881e-3 9.237925676336024e-3 9.354124476791794e-3
      9.471784878228185e-3 9.590925265322294e-3 9.711564254001994e-3 9.833720694354717e-3
      9.957413673572791e-3 1.008266251893588e-2 1.020948680083088e-2 1.033790633580988e-2
      1.046794118968648e-2 1.059961168067116e-2 1.073293838254603e-2 1.086794212787950e-2
      1.100464401128145e-2 1.114306539269928e-2 1.128322790075547e-2 1.142515343612706e-2
      1.156886417496770e-2 1.171438257237271e-2 1.186173136588774e-2 1.201093357906159e-2
      1.216201252504360e-2 1.231499181022645e-2 1.246989533793469e-2 1.262674731215967e-2
      1.278557224134151e-2 1.294639494219851e-2 1.310924054360487e-2 1.327413449051713e-2
      1.344110254794995e-2 1.361017080500204e-2 1.378136567893252e-2 1.395471391928873e-2
      1.413024261208593e-2 1.430797918403944e-2 1.448795140685029e-2 1.467018740154443e-2
      1.485471564286678e-2 1.504156496373048e-2 1.523076455972206e-2 1.542234399366334e-2
      1.561633320023063e-2 1.581276249063214e-2 1.601166255734412e-2 1.621306447890665e-2
      1.641699972477976e-2 1.662350016026051e-2 1.683259805146208e-2 1.704432607035538e-2
      1.725871729987410e-2 1.747580523908407e-2 1.769562380841746e-2 1.791820735497294e-2
      1.814359065788251e-2 1.837180893374578e-2 1.860289784213270e-2 1.883689349115534e-2
      1.907383244310993e-2 1.931375172018977e-2 1.955668881027001e-2 1.980268167276526e-2
      2.005176874456075e-2 2.030398894601822e-2 2.055938168705729e-2 2.081798687331333e-2
      2.107984491237286e-2 2.134499672008724e-2 2.161348372696586e-2 2.188534788464980e-2
      2.216063167246679e-2 2.243937810406875e-2 2.272163073415276e-2 2.300743366526649e-2
      2.329683155469940e-2 2.358986962146052e-2 2.388659365334393e-2 2.418705001408334e-2
      2.449128565059639e-2 2.479934810032026e-2 2.511128549863946e-2 2.542714658640712e-2
      2.574698071756085e-2 2.607083786683434e-2 2.639876863756605e-2 2.673082426960610e-2
      2.706705664732254e-2 2.740751830770849e-2 2.775226244859106e-2 2.810134293694364e-2
      2.845481431730273e-2 2.881273182029065e-2 2.917515137124548e-2 2.954212959895937e-2
      2.991372384452703e-2 3.028999217030534e-2 3.067099336898569e-2 3.105678697278060e-2
      3.144743326272553e-2 3.184299327809808e-2 3.224352882595538e-2 3.264910249079168e-2
      3.305977764431731e-2 3.347561845536051e-2 3.389668989989404e-2 3.432305777118777e-2
      3.475478869008903e-2 3.519195011543230e-2 3.563461035457970e-2 3.608283857409417e-2
      3.653670481054695e-2 3.699627998146085e-2 3.746163589639141e-2 3.793284526814706e-2
      3.840998172415084e-2 3.889311981794473e-2 3.938233504083881e-2 3.987770383370703e-2
      4.037930359893109e-2 4.088721271249482e-2 4.140151053623056e-2 4.192227743021956e-2
      4.244959476534862e-2 4.298354493602413e-2 4.352421137304660e-2 4.407167855664680e-2
      4.462603202968596e-2 4.518735841102218e-2 4.575574540904450e-2 4.633128183537778e-2
      4.691405761875957e-2 4.750416381909162e-2 4.810169264166843e-2 4.870673745158416e-2
      4.931939278832132e-2 4.993975438052274e-2 5.056791916094929e-2 5.120398528162601e-2
      5.184805212917833e-2 5.250022034036148e-2 5.316059181778535e-2 5.382926974583677e-2
      5.450635860680253e-2 5.519196419719465e-2 5.588619364428149e-2 5.658915542282661e-2
      5.730095937203802e-2 5.802171671273108e-2 5.875154006470659e-2 5.949054346434814e-2
      6.023884238244046e-2 6.099655374221186e-2 6.176379593760398e-2 6.254068885177078e-2
      6.332735387581067e-2 6.412391392773418e-2 6.493049347166995e-2 6.574721853731282e-2
      6.657421673961593e-2 6.741161729873090e-2 6.825955106019879e-2 6.911815051539492e-2
      6.998754982223109e-2 7.086788482611777e-2 7.175929308119036e-2 7.266191387180230e-2
      7.357588823428847e-2 7.450135897900260e-2 7.543847071263141e-2 7.638736986078982e-2
      7.734820469090030e-2 7.832112533535980e-2 7.930628381499859e-2 8.030383406283336e-2
      8.131393194811986e-2 8.233673530070774e-2 8.337240393570168e-2 8.442109967843312e-2
      8.548298638974536e-2 8.655822999159749e-2 8.764699849298992e-2 8.874946201621597e-2
      8.986579282344433e-2 9.099616534363474e-2 9.214075619979322e-2 9.329974423656974e-2
      9.447331054820294e-2 9.566163850681683e-2 9.686491379107252e-2 9.808332441518129e-2
      9.931706075828197e-2 1.005663155941882e-1 1.018312841215099e-1 1.031121639941529e-1
      1.044091553522033e-1 1.057224608531995e-1 1.070522857037981e-1 1.083988376918374e-1
      1.097623272188053e-1 1.111429673327143e-1 1.125409737613912e-1 1.139565649461846e-1
      1.153899620760974e-1 1.168413891223472e-1 1.183110728733631e-1 1.197992429702212e-1
      1.213061319425267e-1 1.228319752447476e-1 1.243770112930041e-1 1.259414815023221e-1
      1.275256303243548e-1 1.291297052855784e-1 1.307539570259695e-1 1.323986393381668e-1
      1.340640092071279e-1 1.357503268502830e-1 1.374578557581944e-1 1.391868627357284e-1
      1.409376179437427e-1 1.427103949413006e-1 1.445054707284145e-1 1.463231257893284e-1
      1.481636441363436e-1 1.500273133541964e-1 1.519144246449938e-1 1.538252728737142e-1
      1.557601566142810e-1 1.577193781962154e-1 1.597032437518755e-1 1.617120632642906e-1
      1.637461506155965e-1 1.658058236360801e-1 1.678914041538415e-1 1.700032180450797e-1
      1.721415952850117e-1 1.743068699994317e-1 1.764993805169191e-1 1.787194694217032e-1
      1.809674836071920e-1 1.832437743301756e-1 1.855486972657107e-1 1.878826125626952e-1
      1.902458849001428e-1 1.926388835441644e-1 1.950619824056666e-1 1.975155600987764e-1
      2.000000000000000e-1 2.025156903081269e-1 2.050630241048859e-1 2.076423994163651e-1
      2.102542192752050e-1 2.128988917835719e-1 2.155768301769263e-1 2.182884528885904e-1
      2.210341836151296e-1 2.238144513825563e-1 2.266296906133653e-1 2.294803411944145e-1
      2.323668485456567e-1 2.352896636897382e-1 2.382492433224718e-1 2.412460498841961e-1
      2.442805516320340e-1 2.473532227130570e-1 2.504645432383730e-1 2.536149993581441e-1
      2.568050833375483e-1 2.600352936336983e-1 2.633061349735244e-1 2.666181184326407e-1
      2.699717615152008e-1 2.733675882347593e-1 2.768061291961503e-1 2.802879216783948e-1
      2.838135097186516e-1 2.873834441972250e-1 2.909982829236403e-1 2.946585907238032e-1
      2.983649395282542e-1 3.021179084615347e-1 3.059180839326760e-1 3.097660597268266e-1
      3.136624370980338e-1 3.176078248631888e-1 3.216028394971567e-1 3.256481052291022e-1
      3.297442541400256e-1 3.338919262615287e-1 3.380917696758184e-1 3.423444406169731e-1
      3.466506035734793e-1 3.510109313920597e-1 3.554261053828077e-1 3.598968154256418e-1
      3.644237600781020e-1 3.690076466845002e-1 3.736491914864445e-1 3.783491197347541e-1
      3.831081658027793e-1 3.879270733011510e-1 3.928065951939697e-1 3.977474939164583e-1
      4.027505414940954e-1 4.078165196632431e-1 4.129462199932975e-1 4.181404440103714e-1
      4.234000033225350e-1 4.287257197466319e-1 4.341184254366886e-1 4.395789630139406e-1
      4.451081856984938e-1 4.507069574426417e-1 4.563761530658608e-1 4.621166583915009e-1
      4.679293703851984e-1 4.738151972950283e-1 4.797750587934196e-1 4.858098861208577e-1
      4.919206222313901e-1 4.981082219399664e-1 5.043736520716299e-1 5.107178916125854e-1
      5.171419318631694e-1 5.236467765927404e-1 5.302334421965216e-1 5.369029578544144e-1
      5.436563656918089e-1 5.504947209424214e-1 5.574190921131703e-1 5.644305611511399e-1
      5.715302236126332e-1 5.787191888343522e-1 5.859985801067410e-1 5.933695348494937e-1
      6.008332047892864e-1 6.083907561397331e-1 6.160433697836062e-1 6.237922414573591e-1
      6.316385819379537e-1 6.395836172320549e-1 6.476285887675926e-1 6.557747535877347e-1
      6.640233845473102e-1 6.723757705116861e-1 6.808332165581636e-1 6.893970441798954e-1
      6.980685914923683e-1 7.068492134424947e-1 7.157402820203160e-1 7.247431864733882e-1
      7.338593335238493e-1 7.430901475882208e-1 7.524370709999829e-1 7.619015642349325e-1
      7.714851061393945e-1 7.811891941612910e-1 7.910153445841155e-1 8.009650927638658e-1
      8.110399933689353e-1 8.212416206230422e-1 8.315715685512021e-1 8.420314512287920e-1
      8.526229030337644e-1 8.633475789020089e-1 8.742071545859513e-1 8.852033269163876e-1
      8.963378140676129e-1 9.076123558259015e-1 9.190287138613380e-1 9.305886720030937e-1
      9.422940365181489e-1 9.541466363935205e-1 9.661483236220567e-1 9.783009734918013e-1
      9.906064848790226e-1 1.003066780544912e0 1.015683807436016e0 1.028459536988458e0
      1.041395965435970e0 1.054495114121818e0 1.067759029814636e0 1.081189785028233e0
      1.094789478345441e0 1.108560234746005e0 1.122504205938631e0 1.136623570697190e0
      1.150920535201146e0 1.165397333380296e0 1.180056227263804e0 1.194899507333664e0
      1.209929492882590e0 1.225148532376397e0 1.240559003820974e0 1.256163315133833e0
      1.271963904520366e0 1.287963240854813e0 1.304163824066022e0 1.320568185528087e0
      1.337178888455854e0 1.353998528305455e0 1.371029733179836e0 1.388275164239407e0
      1.405737516117860e0 1.423419517343199e0 1.441323930764093e0 1.459453553981567e0
      1.477811219786130e0 1.496399796600417e0 1.515222188927370e0 1.534281337804086e0
      1.553580221261356e0 1.573121854788978e0 1.592909291806956e0 1.612945624142575e0
      1.633233982513529e0 1.653777537017095e0 1.674579497625453e0 1.695643114687276e0
      1.716971679435579e0 1.738568524502000e0 1.760437024437523e0 1.782580596239747e0
      1.805002699886826e0 1.827706838878066e0 1.850696560781378e0 1.873975457787587e0
      1.897547167271705e0 1.921415372361302e0 1.945583802511977e0 1.970056234090116e0
      1.994836490962945e0 2.019928445096011e0 2.045336017158202e0 2.071063177134339e0
      2.097113944945514e0 2.123492391077202e0 2.150202637215271e0 2.177248856890030e0
      2.204635276128321e0 2.232366174113873e0 2.260445883855918e0 2.288878792866224e0
      2.317669343844680e0 2.346822035373443e0 2.376341422619879e0 2.406232118048308e0
      2.436498792140695e0 2.467146174126453e0 2.498179052721363e0 2.529602276875845e0
      2.561420756532608e0 2.593639463393827e0 2.626263431698006e0 2.659297759006558e0
      2.692747607000342e0 2.726618202286153e0 2.760914837213419e0 2.795642870701129e0
      2.830807729075162e0 2.866414906916190e0 2.902469967918185e0 2.938978545757788e0
      2.975946344974570e0 3.013379141862358e0 3.051282785371836e0 3.089663198024405e0
      3.128526376837634e0 3.167878394262286e0 3.207725399131135e0 3.248073617619772e0
      3.288929354219412e0 3.330298992722029e0 3.372188997217810e0 3.414605913105172e0
      3.457556368113533e0 3.501047073338858e0 3.545084824292329e0 3.589676501962131e0
      3.634829073888613e0 3.680549595253015e0 3.726845209979803e0 3.773723151852977e0
      3.821190745646334e0 3.869255408267963e0 3.917924649919204e0 3.967206075268066e0
      4.017107384637534e0 4.067636375208726e0 4.118800942239207e0 4.170609080296687e0
      4.223068884508125e0 4.276188551824669e0 4.329976382302415e0 4.384440780399294e0
      4.439590256288333e0 4.495433427187325e0 4.551979018705346e0 4.609235866206120e0
      4.667212916188545e0 4.725919227684650e0 4.785363973675031e0 4.845556442522196e0
      4.906506039421875e0 4.968222287872569e0 5.030714831163680e0 5.093993433882219e0
      5.158067983438612e0 5.222948491611598e0 5.288645096112560e0 5.355168062169631e0
      5.422527784131582e0 5.490734787092020e0 5.559799728533938e0 5.629733399994931e0
      5.700546728753464e0 5.772250779536207e0 5.844856756246989e0 5.918376003717396e0
      5.992820009479405e0 6.068200405560392e0 6.144528970300587e0 6.221817630193533e0
      6.300078461749593e0 6.379323693382900e0 6.459565707322144e0 6.540817041545234e0
      6.623090391738462e0 6.706398613280193e0 6.790754723249511e0 6.876171902460245e0
      6.962663497520410e0 7.050243022917708e0 7.138924163131182e0 7.228720774769387e0
      7.319646888735607e0 7.411716712420119e0 7.504944631920201e0 7.599345214287960e0
      7.694933209806427e0 7.791723554294404e0 7.889731371440111e0 7.988971975164387e0
      8.089460872013486e0 8.191213763581960e0 8.294246548966163e0 8.398575327248402e0
      8.504216400012556e0 8.611186273891192e0 8.719501663144701e0 8.829179492273058e0
      8.940236898660171e0 9.052691235251753e0 9.166560073266702e0 9.281861204942595e0
      9.398612646315870e0 9.516832640036741e0 9.636539658219764e0 9.757752405330091e0
      9.880489821106037e0 1.000477108351856e1 1.013061561176773e1 1.025804306931714e1
      1.038707336696630e1 1.051772666596169e1 1.065002338114714e1 1.078398418415351e1
      1.091963000662885e1 1.105698204350890e1 1.119606175632883e1 1.133689087657678e1
      1.147949140908925e1 1.162388563548960e1 1.177009611766949e1 1.191814570131420e1
      1.206805751947241e1 1.221985499617068e1 1.237356185007358e1 1.252920209818978e1
      1.268680005962467e1 1.284638035938039e1 1.300796793220340e1 1.317158802648074e1
      1.333726620818504e1 1.350502836486923e1 1.367490070971165e1 1.384690978561173e1
      1.402108246933757e1 1.419744597572539e1 1.437602786193182e1 1.455685603173995e1
      1.473995873991917e1 1.492536459664018e1 1.511310257194534e1 1.530320200027518e1
      1.549569258505219e1 1.569060440332183e1 1.588796791045227e1 1.608781394489307e1
      1.629017373299363e1 1.649507889388262e1 1.670256144440826e1 1.691265380414120e1
      1.712538880044013e1 1.734079967358098e1 1.755892008195098e1 1.777978410730767e1
      1.800342626010436e1 1.822988148488249e1 1.845918516573158e1 1.869137313181835e1
      1.892648166298483e1 1.916454749541737e1 1.940560782738669e1 1.964970032506002e1
      1.989686312838679e1 2.014713485705783e1 2.040055461653994e1 2.065716200418617e1
      2.091699711542284e1 2.118010055001481e1 2.144651341840891e1 2.171627734815792e1
      2.198943449042472e1 2.226602752656847e1 2.254609967481387e1 2.282969469700381e1
      2.311685690543754e1 2.340763116979438e1 2.370206292414467e1 2.400019817404911e1
      2.430208350374699e1 2.460776608343531e1 2.491729367663909e1 2.523071464767444e1
      2.554807796920581e1 2.586943322989780e1 2.619483064216372e1 2.652432105001133e1
      2.685795593698710e1 2.719578743422103e1 2.753786832857175e1 2.788425207087503e1
      2.823499278429540e1 2.859014527278280e1 2.894976502963623e1 2.931390824617424e1
      2.968263182051532e1 3.005599336646820e1 3.043405122253393e1 3.081686446102179e1
      3.120449289727902e1 3.159699709903749e1 3.199443839587734e1 3.239687888880967e1
      3.280438145998040e1 3.321700978249523e1 3.363482833036909e1 3.405790238860023e1
      3.448629806337087e1 3.492008229237689e1 3.535932285528649e1 3.580408838433134e1
      3.625444837503027e1 3.671047319704800e1 3.717223410519087e1 3.763980325054010e1
      3.811325369172600e1 3.859265940634332e1 3.907809530251019e1 3.956963723057315e1
      4.006736199495837e1 4.057134736617298e1 4.108167209295668e1 4.159841591458613e1
      4.212165957333496e1 4.265148482708922e1 4.318797446212282e1 4.373121230603284e1
      4.428128324083743e1 4.483827321623946e1 4.540226926305563e1 4.597335950681577e1
      4.655163318153246e1 4.713718064364373e1 4.773009338613197e1 4.833046405281936e1
      4.893838645284408e1 4.955395557531807e1 5.017726760416892e1 5.080841993316946e1
      5.144751118115500e1 5.209464120743336e1 5.274991112738785e1 5.341342332827644e1
      5.408528148523060e1 5.476559057745412e1 5.545445690462680e1 5.615198810351391e1
      5.685829316478419e1 5.757348245004067e1 5.829766770906404e1 5.903096209727447e1
      5.977348019341211e1 6.052533801743998e1 6.128665304867292e1 6.205754424413328e1
      6.283813205713884e1 6.362853845612362e1 6.442888694369531e1 6.523930257593367e1
      6.605991198192979e1 6.689084338357302e1 6.773222661558552e1 6.858419314580889e1
      6.944687609574702e1 7.032041026136577e1 7.120493213415583e1 7.210057992245955e1
      7.300749357306578e1 7.392581479307785e1 7.485568707205444e1 7.579725570443111e1
      7.675066781222245e1 7.771607236800977e1 7.869362021821930e1 7.968346410669120e1
      8.068575869854703e1 8.170066060435611e1 8.272832840460577e1 8.376892267448087e1
      8.482260600895293e1 8.588954304818678e1 8.696990050326574e1 8.806384718223979e1
      8.917155401650351e1 9.029319408750311e1 9.142894265378180e1 9.257897717836391e1
      9.374347735648341e1 9.492262514366258e1 9.611660478414187e1 9.732560283966945e1
      9.854980821865135e1 9.978941220566842e1 1.010446084913659e2
      </PP_R>
    <PP_RAB>
      2.279704913886290e-6 2.308380071672556e-6 2.337415918541456e-6 2.366816991403135e-6
      2.396587884235049e-6 2.426733248799772e-6 2.457257795371847e-6 2.488166293473778e-6
      2.519463572621276e-6 2.551154523077886e-6 2.583244096619093e-6 2.615737307306047e-6
      2.648639232269026e-6 2.681955012500742e-6 2.715689853659645e-6 2.749849026883295e-6
      2.784437869612008e-6 2.819461786422831e-6 2.854926249874019e-6 2.890836801360144e-6
      2.927199051977937e-6 2.964018683403033e-6 3.001301448777752e-6 3.039053173610037e-6
      3.077279756683704e-6 3.115987170980124e-6 3.155181464611536e-6 3.194868761766061e-6
      3.235055263664620e-6 3.275747249529900e-6 3.316951077567479e-6 3.358673185959318e-6
      3.400920093869735e-6 3.443698402464042e-6 3.487014795939997e-6 3.530876042572205e-6
      3.575288995769686e-6 3.620260595146739e-6 3.665797867607258e-6 3.711907928442717e-6
      3.758597982443931e-6 3.805875325026829e-6 3.853747343372376e-6 3.902221517580831e-6
      3.951305421840543e-6 4.001006725611411e-6 4.051333194823266e-6 4.102292693089316e-6
      4.153893182934835e-6 4.206142727041353e-6 4.259049489506435e-6 4.312621737119357e-6
      4.366867840652800e-6 4.421796276170802e-6 4.477415626353175e-6 4.533734581836538e-6
      4.590761942572267e-6 4.648506619201503e-6 4.706977634447443e-6 4.766184124525191e-6
      4.826135340569275e-6 4.886840650079168e-6 4.948309538382992e-6 5.010551610119599e-6
      5.073576590739336e-6 5.137394328023647e-6 5.202014793623824e-6 5.267448084619085e-6
      5.333704425094270e-6 5.400794167737387e-6 5.468727795457212e-6 5.537515923021293e-6
      5.607169298714508e-6 5.677698806018518e-6 5.749115465312341e-6 5.821430435594285e-6
      5.894655016225584e-6 5.968800648695933e-6 6.043878918411258e-6 6.119901556503958e-6
      6.196880441665897e-6 6.274827602004497e-6 6.353755216922147e-6 6.433675619019250e-6
      6.514601296021246e-6 6.596544892729804e-6 6.679519212998627e-6 6.763537221734065e-6
      6.848612046920922e-6 6.934756981673720e-6 7.021985486313782e-6 7.110311190472419e-6
      7.199747895220607e-6 7.290309575225419e-6 7.382010380933616e-6 7.474864640782650e-6
      7.568886863439539e-6 7.664091740067859e-6 7.760494146623271e-6 7.858109146177954e-6
      7.956951991274167e-6 8.057038126307566e-6 8.158383189940370e-6 8.261003017544954e-6
      8.364913643678181e-6 8.470131304586781e-6 8.576672440744336e-6 8.684553699420134e-6
      8.793791937280321e-6 8.904404223021825e-6 9.016407840039326e-6 9.129820289125858e-6
      9.244659291207329e-6 9.360942790111451e-6 9.478688955371521e-6 9.597916185065410e-6
      9.718643108690328e-6 9.840888590073707e-6 9.964671730320726e-6 1.009001187079890e-5
      1.021692859616017e-5 1.034544173740109e-5 1.047557137496145e-5 1.060733784186185e-5
      1.074076172688085e-5 1.087586387777192e-5 1.101266540452102e-5 1.115118768264501e-5
      1.129145235653167e-5 1.143348134282169e-5 1.157729683383312e-5 1.172292130102903e-5
      1.187037749852869e-5 1.201968846666297e-5 1.217087753557441e-5 1.232396832886263e-5
      1.247898476727554e-5 1.263595107244704e-5 1.279489177068163e-5 1.295583169678681e-5
      1.311879599795346e-5 1.328381013768519e-5 1.345089989977705e-5 1.362009139234431e-5
      1.379141105190193e-5 1.396488564749525e-5 1.414054228488277e-5 1.431840841077147e-5
      1.449851181710535e-5 1.468088064540813e-5 1.486554339118024e-5 1.505252890835140e-5
      1.524186641378910e-5 1.543358549186375e-5 1.562771609907140e-5 1.582428856871437e-5
      1.602333361564096e-5 1.622488234104472e-5 1.642896623732403e-5 1.663561719300293e-5
      1.684486749771367e-5 1.705674984724207e-5 1.727129734863633e-5 1.748854352538003e-5
      1.770852232263031e-5 1.793126811252175e-5 1.815681569953723e-5 1.838520032594609e-5
      1.861645767731084e-5 1.885062388806319e-5 1.908773554714991e-5 1.932782970375018e-5
      1.957094387306443e-5 1.981711604217624e-5 2.006638467598790e-5 2.031878872323053e-5
      2.057436762255008e-5 2.083316130866953e-5 2.109521021862883e-5 2.136055529810337e-5
      2.162923800780158e-5 2.190130032994357e-5 2.217678477482065e-5 2.245573438743779e-5