<UPF version="2.0.1">
  <PP_INFO>
Generated using "atomic" code by A. Dal Corso  v.6.2.2
Author: ADC
Generation date:  4May2018
Pseudopotential type: USPP
Element: Po
Functional: LDA
    Suggested minimum cutoff for wavefunctions:  47. Ry
    Suggested minimum cutoff for charge density: 455. Ry
    The Pseudo was generated with a Scalar-Relativistic Calculation
    Local Potential by smoothing AE potential with Bessel fncs, cutoff radius:   1.9000
    Pseudopotential contains additional information for GIPAW reconstruction.
    Valence configuration:
    nl pn  l   occ       Rcut    Rcut US       E pseu
    6S  1  0  2.00      1.700      1.900    -1.264006
    6P  2  1  4.00      2.000      2.100    -0.427515
    5D  3  2 10.00      0.900      1.600    -2.449733
    Generation configuration:
    6S  1  0  2.00      1.700      1.900    -1.264001
    6S  1  0  0.00      1.700      1.900     4.000000
    6P  2  1  4.00      2.000      2.100    -0.427514
    6P  2  1  0.00      2.000      2.100     6.000000
    5D  3  2 10.00      0.900      1.600    -2.449731
    5D  3  2  0.00      0.900      1.600     4.750000
    Pseudization used: troullier-martins

    <PP_INPUTFILE>
 &amp;input
   title='Po',
   zed=84.,
   rel=1,
   config='[Xe] 4f14 6s2 6p4 5d10',
   iswitch=3,
   dft='LDA'
 /
 &amp;inputp
   lpaw=.false.,
   use_xsd=.FALSE.,
   pseudotype=3,
   file_pseudopw='Po.pz-dn-rrkjus_psl.1.0.0.UPF',
   author='ADC',
   lloc=-1,
   rcloc=1.9,
   which_augfun='PSQ',
   rmatch_augfun_nc=.true.,
   nlcc=.true.,
   new_core_ps=.true.,
   rcore=1.3,
   tm=.true.
 /
6
6S  1  0  2.00  0.00  1.70  1.90  0.0
6S  1  0  0.00  4.00  1.70  1.90  0.0
6P  2  1  4.00  0.00  2.00  2.10  0.0
6P  2  1  0.00  6.00  2.00  2.10  0.0
5D  3  2 10.00  0.00  0.90  1.60  0.0
5D  3  2  0.00  4.75  0.90  1.60  0.0
</PP_INPUTFILE>
  </PP_INFO>
  <!--
 END OF HUMAN READABLE SECTION 
-->
  <PP_HEADER generated="Generated using &quot;atomic&quot; code by A. Dal Corso  v.6.2.2" author="ADC" date=" 4May2018" comment="" element="Po" pseudo_type="USPP" relativistic="scalar" is_ultrasoft="true" is_paw="false" is_coulomb="false" has_so="false" has_wfc="false" has_gipaw="true" paw_as_gipaw="false" core_correction="true" functional="LDA" z_valence="1.600000000000e1" total_psenergy="-1.949163822542e2" wfc_cutoff="4.661379200088e1" rho_cutoff="4.551393246110e2" l_max="2" l_max_rho="4" l_local="-1" mesh_size="1283" number_of_wfc="3" number_of_proj="6"/>
  <PP_MESH dx="1.250000000000e-2" mesh="1283" xmin="-7.000000000000e0" rmax="1.000000000000e2" zmesh="8.400000000000e1">
    <PP_R>
      1.085573768517281e-5 1.099228605558360e-5 1.113055199305455e-5 1.127055710191969e-5
      1.141232325826214e-5 1.155587261333225e-5 1.170122759700880e-5 1.184841092130370e-5
      1.199744558391084e-5 1.214835487179946e-5 1.230116236485282e-5 1.245589193955260e-5
      1.261256777270964e-5 1.277121434524163e-5 1.293185644599831e-5 1.309451917563474e-5
      1.325922795053338e-5 1.342600850677538e-5 1.359488690416199e-5 1.376588953028640e-5
      1.393904310465684e-5 1.411437468287158e-5 1.429191166084644e-5 1.447168177909541e-5
      1.465371312706525e-5 1.483803414752440e-5 1.502467364100732e-5 1.521366077031458e-5
      1.540502506506962e-5 1.559879642633285e-5 1.579500513127371e-5 1.599368183790151e-5
      1.619485758985588e-5 1.639856382125735e-5 1.660483236161903e-5 1.681369544082002e-5
      1.702518569414136e-5 1.723933616736542e-5 1.745618032193932e-5 1.767575204020342e-5
      1.789808563068538e-5 1.812321583346109e-5 1.835117782558274e-5 1.858200722657538e-5
      1.881574010400258e-5 1.905241297910196e-5 1.929206283249174e-5 1.953472710994912e-5
      1.978044372826112e-5 2.002925108114930e-5 2.028118804526874e-5 2.053629398628265e-5
      2.079460876501333e-5 2.105617274367048e-5 2.132102679215798e-5 2.158921229445970e-5
      2.186077115510603e-5 2.213574580572144e-5 2.241417921165449e-5 2.269611487869139e-5
      2.298159685985368e-5 2.327066976228175e-5 2.356337875420472e-5 2.385976957199808e-5
      2.415988852733017e-5 2.446378251439833e-5 2.477149901725631e-5 2.508308611723375e-5
      2.539859250044890e-5 2.571806746541612e-5 2.604156093074863e-5 2.636912344295853e-5
      2.670080618435480e-5 2.703666098104056e-5 2.737674031101114e-5 2.772109731235373e-5
      2.806978579155039e-5 2.842286023188540e-5 2.878037580195836e-5 2.914238836430456e-5
      2.950895448412332e-5 2.988013143811665e-5 3.025597722343879e-5 3.063655056675833e-5
      3.102191093343451e-5 3.141211853680859e-5 3.180723434761251e-5 3.220732010349556e-5
      3.261243831867105e-5 3.302265229368439e-5 3.343802612530372e-5 3.385862471653533e-5
      3.428451378676479e-5 3.471575988202580e-5 3.515243038539817e-5 3.559459352753644e-5
      3.604231839733114e-5 3.649567495270408e-5 3.695473403153939e-5 3.741956736275215e-5
      3.789024757749604e-5 3.836684822051222e-5 3.884944376162080e-5 3.933810960735693e-5
      3.983292211275324e-5 4.033395859327038e-5 4.084129733687779e-5 4.135501761628635e-5
      4.187519970133486e-5 4.240192487153251e-5 4.293527542875869e-5 4.347533471012313e-5
      4.402218710098730e-5 4.457591804814976e-5 4.513661407319772e-5 4.570436278602575e-5
      4.627925289852536e-5 4.686137423844622e-5 4.745081776343203e-5 4.804767557523283e-5
      4.865204093409604e-5 4.926400827333852e-5 4.988367321410214e-5 5.051113258029454e-5
      5.114648441371834e-5 5.178982798939009e-5 5.244126383105244e-5 5.310089372688097e-5
      5.376882074538889e-5 5.444514925153181e-5 5.512998492301483e-5 5.582343476680489e-5
      5.652560713585093e-5 5.723661174601411e-5 5.795655969321146e-5 5.868556347077441e-5
      5.942373698702639e-5 6.017119558308113e-5 6.092805605086489e-5 6.169443665136576e-5
      6.247045713311171e-5 6.325623875088184e-5 6.405190428465266e-5 6.485757805878245e-5
      6.567338596143777e-5 6.649945546426310e-5 6.733591564229892e-5 6.818289719414983e-5
      6.904053246240645e-5 6.990895545432442e-5 7.078830186276303e-5 7.167870908738760e-5
      7.258031625613855e-5 7.349326424697024e-5 7.441769570986381e-5 7.535375508911603e-5
      7.630158864590932e-5 7.726134448116534e-5 7.823317255868584e-5 7.921722472858539e-5
      8.021365475101748e-5 8.122261832020033e-5 8.224427308874439e-5 8.327877869228583e-5
      8.432629677443007e-5 8.538699101200834e-5 8.646102714065346e-5 8.754857298069567e-5
      8.864979846338496e-5 8.976487565744375e-5 9.089397879595193e-5 9.203728430357227e-5
      9.319497082411633e-5 9.436721924845827e-5 9.555421274279952e-5 9.675613677728823e-5
      9.797317915500036e-5 9.920553004128346e-5 1.004533819934706e-4 1.017169299909684e-4
      1.029963714657218e-4 1.042919063330646e-4 1.056037370229555e-4 1.069320685116085e-4
      1.082771083535217e-4 1.096390667139064e-4 1.110181564015277e-4 1.124145929019549e-4
      1.138285944112322e-4 1.152603818699725e-4 1.167101789978789e-4 1.181782123287025e-4
      1.196647112456379e-4 1.211699080171651e-4 1.226940378333423e-4 1.242373388425536e-4
      1.258000521887221e-4 1.273824220489872e-4 1.289846956718590e-4 1.306071234158511e-4
      1.322499587885989e-4 1.339134584864722e-4 1.355978824346831e-4 1.373034938279003e-4
      1.390305591713744e-4 1.407793483225788e-4 1.425501345333764e-4 1.443431944927154e-4
      1.461588083698623e-4 1.479972598581797e-4 1.498588362194524e-4 1.517438283287746e-4
      1.536525307199985e-4 1.555852416317557e-4 1.575422630540588e-4 1.595239007754861e-4
      1.615304644309635e-4 1.635622675501446e-4 1.656196276064002e-4 1.677028660664254e-4
      1.698123084404673e-4 1.719482843331890e-4 1.741111274951693e-4 1.763011758750524e-4
      1.785187716723538e-4 1.807642613909279e-4 1.830379958931123e-4 1.853403304545487e-4
      1.876716248196963e-4 1.900322432580431e-4 1.924225546210223e-4 1.948429323996479e-4
      1.972937547828721e-4 1.997754047166781e-4 2.022882699639176e-4 2.048327431648974e-4
      2.074092218987323e-4 2.100181087454663e-4 2.126598113489766e-4 2.153347424806704e-4
      2.180433201039783e-4 2.207859674396653e-4 2.235631130319573e-4 2.263751908155030e-4
      2.292226401831777e-4 2.321059060547380e-4 2.350254389463426e-4 2.379816950409456e-4
      2.409751362595761e-4 2.440062303335150e-4 2.470754508773779e-4 2.501832774631194e-4
      2.533301956949663e-4 2.565166972852949e-4 2.597432801314616e-4 2.630104483936005e-4
      2.663187125734000e-4 2.696685895938687e-4 2.730606028801063e-4 2.764952824410902e-4
      2.799731649524894e-4 2.834947938405224e-4 2.870607193668675e-4 2.906714987146433e-4
      2.943276960754690e-4 2.980298827376208e-4 3.017786371752970e-4 3.055745451390051e-4
      3.094181997470875e-4 3.133102015783966e-4 3.172511587661368e-4 3.212416870928868e-4
      3.252824100868163e-4 3.293739591191140e-4 3.335169735026407e-4 3.377121005918227e-4
      3.419599958838027e-4 3.462613231208628e-4 3.506167543941344e-4 3.550269702486156e-4
      3.594926597895060e-4 3.640145207898821e-4 3.685932597997249e-4 3.732295922563201e-4
      3.779242425960470e-4 3.826779443675723e-4 3.874914403464694e-4 3.923654826512781e-4
      3.973008328610249e-4 4.022982621342209e-4 4.073585513293576e-4 4.124824911269170e-4
      4.176708821529171e-4 4.229245351040115e-4 4.282442708741626e-4 4.336309206829076e-4
      4.390853262052381e-4 4.446083397031145e-4 4.502008241586321e-4 4.558636534088651e-4
      4.615977122824050e-4 4.674038967376170e-4 4.732831140026347e-4 4.792362827171173e-4
      4.852643330757884e-4 4.913682069737803e-4 4.975488581538085e-4 5.038072523551942e-4
      5.101443674647641e-4 5.165611936696473e-4 5.230587336119931e-4 5.296380025456372e-4
      5.363000284947360e-4 5.430458524143976e-4 5.498765283533347e-4 5.567931236185593e-4
      5.637967189421540e-4 5.708884086501365e-4 5.780693008334520e-4 5.853405175211142e-4
      5.927031948555232e-4 6.001584832699925e-4 6.077075476685049e-4 6.153515676077312e-4
      6.230917374813378e-4 6.309292667066167e-4 6.388653799134538e-4 6.469013171356844e-4
      6.550383340048484e-4 6.632777019463855e-4 6.716207083783019e-4 6.800686569123249e-4
      6.886228675576010e-4 6.972846769269471e-4 7.060554384456992e-4 7.149365225631898e-4
      7.239293169668805e-4 7.330352267991930e-4 7.422556748770650e-4 7.515921019142663e-4
      7.610459667465187e-4 7.706187465594352e-4 7.803119371193374e-4 7.901270530069720e-4
      8.000656278541637e-4 8.101292145834547e-4 8.203193856507449e-4 8.306377332909959e-4
      8.410858697670193e-4 8.516654276213954e-4 8.623780599315650e-4 8.732254405681205e-4
      8.842092644563559e-4 8.953312478411004e-4 9.065931285548848e-4 9.179966662894847e-4
      9.295436428708710e-4 9.412358625376273e-4 9.530751522228641e-4 9.650633618396814e-4
      9.772023645702237e-4 9.894940571583637e-4 1.001940360206076e-3 1.014543218473534e-3
      1.027304601182982e-3 1.040226502326433e-3 1.053310940977230e-3 1.066559961605532e-3
      1.079975634397768e-3 1.093560055580106e-3 1.107315347745994e-3 1.121243660187818e-3
      1.135347169232734e-3 1.149628078582725e-3 1.164088619658929e-3 1.178731051950313e-3
      1.193557663366711e-3 1.208570770596322e-3 1.223772719467696e-3 1.239165885316269e-3
      1.254752673355528e-3 1.270535519052812e-3 1.286516888509873e-3 1.302699278848202e-3
      1.319085218599214e-3 1.335677268099330e-3 1.352478019890045e-3 1.369490099123005e-3
      1.386716163970203e-3 1.404158906039317e-3 1.421821050794281e-3 1.439705357981151e-3
      1.457814622059309e-3 1.476151672638110e-3 1.494719374919016e-3 1.513520630143280e-3
      1.532558376045289e-3 1.551835587311568e-3 1.571355276045598e-3 1.591120492238459e-3
      1.611134324245389e-3 1.631399899268363e-3 1.651920383844706e-3 1.672698984341883e-3
      1.693738947458496e-3 1.715043560731587e-3 1.736616153050326e-3 1.758460095176153e-3
      1.780578800269466e-3 1.802975724422937e-3 1.825654367201529e-3 1.848618272189322e-3
      1.871871027543186e-3 1.895416266553456e-3 1.919257668211629e-3 1.943398957785219e-3
      1.967843907399840e-3 1.992596336628602e-3 2.017660113088931e-3 2.043039153046891e-3
      2.068737422029109e-3 2.094758935442399e-3 2.121107759201172e-3 2.147788010362748e-3
      2.174803857770652e-3 2.202159522706004e-3 2.229859279547108e-3 2.257907456437325e-3
      2.286308435961360e-3 2.315066655830043e-3 2.344186609573739e-3 2.373672847244466e-3
      2.403529976126851e-3 2.433762661458025e-3 2.464375627156581e-3 2.495373656560688e-3
      2.526761593175513e-3 2.558544341430008e-3 2.590726867443250e-3 2.623314199800405e-3
      2.656311430338451e-3 2.689723714941796e-3 2.723556274347887e-3 2.757814394962963e-3
      2.792503429688070e-3 2.827628798755454e-3 2.863195990575502e-3 2.899210562594295e-3
      2.935678142161984e-3 2.972604427412069e-3 3.009995188151743e-3 3.047856266763453e-3
      3.086193579117757e-3 3.125013115497707e-3 3.164320941534843e-3 3.204123199156952e-3
      3.244426107547770e-3 3.285235964118729e-3 3.326559145492946e-3 3.368402108501583e-3
      3.410771391192740e-3 3.453673613853039e-3 3.497115480042059e-3 3.541103777639770e-3
      3.585645379907170e-3 3.630747246560230e-3 3.676416424857379e-3 3.722660050700641e-3
      3.769485349750635e-3 3.816899638555605e-3 3.864910325694640e-3 3.913524912935288e-3
      3.962750996405711e-3 4.012596267781600e-3 4.063068515488022e-3 4.114175625916364e-3
      4.165925584656613e-3 4.218326477745105e-3 4.271386492927998e-3 4.325113920940614e-3
      4.379517156802885e-3 4.434604701131107e-3 4.490385161466155e-3 4.546867253618442e-3
      4.604059803029780e-3 4.661971746152370e-3 4.720612131845154e-3 4.779990122787700e-3
      4.840114996911897e-3 4.900996148851652e-3 4.962643091410813e-3 5.025065457049589e-3
      5.088272999389605e-3 5.152275594737947e-3 5.217083243630350e-3 5.282706072393808e-3
      5.349154334728830e-3 5.416438413311591e-3 5.484568821416262e-3 5.553556204557722e-3
      5.623411342154937e-3 5.694145149215288e-3 5.765768678040031e-3 5.838293119951267e-3
      5.911729807040594e-3 5.986090213939772e-3 6.061385959613681e-3 6.137628809175765e-3
      6.214830675726384e-3 6.293003622214259e-3 6.372159863321313e-3 6.452311767371278e-3
      6.533471858262221e-3 6.615652817423473e-3 6.698867485797095e-3 6.783128865844322e-3
      6.868450123577223e-3 6.954844590615905e-3 7.042325766271611e-3 7.130907319656021e-3
      7.220603091817064e-3 7.311427097901642e-3 7.403393529345480e-3 7.496516756090600e-3
      7.590811328830640e-3 7.686291981284430e-3 7.782973632498182e-3 7.880871389176598e-3
      7.980000548043328e-3 8.080376598231130e-3 8.182015223702050e-3 8.284932305698121e-3
      8.389143925222784e-3 8.494666365553606e-3 8.601516114786580e-3 8.709709868412402e-3
      8.819264531925214e-3 8.930197223464074e-3 9.042525276487725e-3 9.156266242482989e-3
      9.271437893707201e-3 9.388058225965199e-3 9.506145461421159e-3 9.625718051445865e-3
      9.746794679499791e-3 9.869394264052387e-3 9.993535961538182e-3 1.011923916934998e-2
      1.024652352886974e-2 1.037540892853760e-2 1.050591550695947e-2 1.063806365605376e-2
      1.077187402423762e-2 1.090736751965331e-2 1.104456531343516e-2 1.118348884301757e-2
      1.132415981548469e-2 1.146660021096217e-2 1.161083228605158e-2 1.175687857730812e-2
      1.190476190476190e-2 1.205450537548374e-2 1.220613238719559e-2 1.235966663192649e-2
      1.251513209971458e-2 1.267255308235547e-2 1.283195417719800e-2 1.299336029098753e-2
      1.315679664375772e-2 1.332228877277121e-2 1.348986253650984e-2 1.365954411871515e-2
      1.383136003247956e-2 1.400533712438918e-2 1.418150257871856e-2 1.435988392167834e-2
      1.454050902571631e-2 1.472340611387244e-2 1.490860376418887e-2 1.509613091417524e-2
      1.528601686533025e-2 1.547829128772013e-2 1.567298422461455e-2 1.587012609718099e-2
      1.606974770923814e-2 1.627188025206900e-2 1.647655530929466e-2 1.668380486180921e-2
      1.689366129277688e-2 1.710615739269197e-2 1.732132636450240e-2 1.753920182879781e-2
      1.775981782906275e-2 1.798320883699611e-2 1.820940975789738e-2 1.843845593612063e-2
      1.867038316059725e-2 1.890522767042791e-2 1.914302616054504e-2 1.938381578744656e-2
      1.962763417500152e-2 1.987451942032908e-2 2.012451009975110e-2 2.037764527481983e-2
      2.063396449842139e-2 2.089350782095593e-2 2.115631579659570e-2 2.142242948962154e-2
      2.169189048083941e-2 2.196474087407739e-2 2.224102330276456e-2 2.252078093659250e-2
      2.280405748826068e-2 2.309089722030660e-2 2.338134495202200e-2 2.367544606645586e-2
      2.397324651750568e-2 2.427479283709781e-2 2.458013214245819e-2 2.488931214347449e-2
      2.520238115015089e-2 2.551938808015667e-2 2.584038246646956e-2 2.616541446511551e-2
      2.649453486300558e-2 2.682779508587153e-2 2.716524720630124e-2 2.750694395187506e-2
      2.785293871340467e-2 2.820328555327549e-2 2.855803921389402e-2 2.891725512624153e-2
      2.928098941853512e-2 2.964929892499800e-2 3.002224119473988e-2 3.039987450074913e-2
      3.078225784899817e-2 3.116945098766312e-2 3.156151441645962e-2 3.195850939609609e-2
      3.236049795784578e-2 3.276754291323937e-2 3.317970786387919e-2 3.359705721137737e-2
      3.401965616741864e-2 3.444757076394954e-2 3.488086786349649e-2 3.531961516961272e-2
      3.576388123745752e-2 3.621373548450793e-2 3.666924820140513e-2 3.713049056293804e-2
      3.759753463916392e-2 3.807045340666993e-2 3.854932075997575e-2 3.903421152307946e-2
      3.952520146114942e-2 4.002236729236227e-2 4.052578669989069e-2 4.103553834404139e-2
      4.155170187454573e-2 4.207435794300563e-2 4.260358821549501e-2 4.313947538532073e-2
      4.368210318594342e-2 4.423155640406077e-2 4.478792089285612e-2 4.535128358541265e-2
      4.592173250829729e-2 4.649935679531493e-2 4.708424670143544e-2 4.767649361689678e-2
      4.827619008148424e-2 4.888342979899061e-2 4.949830765185726e-2 5.012091971599952e-2
      5.075136327581932e-2 5.138973683940530e-2 5.203614015392567e-2 5.269067422121353e-2
      5.335344131354839e-2 5.402454498963699e-2 5.470409011079393e-2 5.539218285732701e-2
      5.608893074512791e-2 5.679444264247145e-2 5.750882878702720e-2 5.823220080308341e-2
      5.896467171898943e-2 5.970635598481623e-2 6.045736949023906e-2 6.121782958264633e-2
      6.198785508547441e-2 6.276756631677488e-2 6.355708510801405e-2 6.435653482310912e-2
      6.516604037770481e-2 6.598572825869077e-2 6.681572654396613e-2 6.765616492245176e-2
      6.850717471435395e-2 6.936888889168429e-2 7.024144209903593e-2 7.112497067462289e-2
      7.201961267158275e-2 7.292550787954744e-2 7.384279784648657e-2 7.477162590082341e-2
      7.571213717383129e-2 7.666447862231029e-2 7.762879905154897e-2 7.860524913857660e-2
      7.959398145570561e-2 8.059515049437229e-2 8.160891268927600e-2 8.263542644282184e-2
      8.367485214987262e-2 8.472735222280948e-2 8.579309111691030e-2 8.687223535604566e-2
      8.796495355869823e-2 8.907141646431056e-2 9.019179695996248e-2 9.132627010738604e-2
      9.247501317031876e-2 9.363820564220109e-2 9.481602927422356e-2 9.600866810372469e-2
      9.721630848294817e-2 9.843913910816040e-2 9.967735104913411e-2 1.009311377790046e-1
      1.022006952044988e-1 1.034862216965476e-1 1.047879181212811e-1 1.061059878714135e-1
      1.074406368980253e-1 1.087920737427420e-1 1.101605095703201e-1 1.115461582016421e-1
      1.129492361471253e-1 1.143699626405537e-1 1.158085596733320e-1 1.172652520291736e-1
      1.187402673192229e-1 1.202338360176197e-1 1.217461914975120e-1 1.232775700675202e-1
      1.248282110086615e-1 1.263983566117382e-1 1.279882522151947e-1 1.295981462434541e-1
      1.312282902457334e-1 1.328789389353496e-1 1.345503502295189e-1 1.362427852896562e-1
      1.379565085621834e-1 1.396917878198478e-1 1.414488942035642e-1 1.432281022647802e-1
      1.450296900083747e-1 1.468539389360984e-1 1.487011340905573e-1 1.505715640997527e-1
      1.524655212221791e-1 1.543833013924897e-1 1.563252042677384e-1 1.582915332741999e-1
      1.602825956547822e-1 1.622987025170329e-1 1.643401688817511e-1 1.664073137322101e-1
      1.685004600639977e-1 1.706199349354875e-1 1.727660695189396e-1 1.749391991522493e-1
      1.771396633913435e-1 1.793678060632356e-1 1.816239753197521e-1 1.839085236919289e-1
      1.862218081450973e-1 1.885641901346599e-1 1.909360356625676e-1 1.933377153345102e-1
      1.957696044178222e-1 1.982320829001207e-1 2.007255355486791e-1 2.032503519705460e-1
      2.058069266734246e-1 2.083956591273130e-1 2.110169538269243e-1 2.136712203548888e-1
      2.163588734457508e-1 2.190803330507746e-1 2.218360244035597e-1 2.246263780864867e-1
      2.274518300979961e-1 2.303128219207121e-1 2.332098005904288e-1 2.361432187659563e-1
      2.391135347998532e-1 2.421212128100432e-1 2.451667227523338e-1 2.482505404938504e-1
      2.513731478873884e-1 2.545350328467065e-1 2.577366894227628e-1 2.609786178809104e-1
      2.642613247790675e-1 2.675853230468646e-1 2.709511320657944e-1 2.743592777503643e-1
      2.778102926302705e-1 2.813047159336101e-1 2.848430936711328e-1 2.884259787215593e-1
      2.920539309179687e-1 2.957275171352720e-1 2.994473113787905e-1 3.032138948739416e-1
      3.070278561570603e-1 3.108897911673570e-1 3.148003033400333e-1 3.187600037005733e-1
      3.227695109602132e-1 3.268294516126202e-1 3.309404600317820e-1 3.351031785711268e-1
      3.393182576638966e-1 3.435863559247742e-1 3.479081402527969e-1 3.522842859355593e-1
      3.567154767547265e-1 3.612024050928805e-1 3.657457720417016e-1 3.703462875115198e-1
      3.750046703422377e-1 3.797216484156488e-1 3.844979587691753e-1 3.893343477110259e-1
      3.942315709368132e-1 3.991903936476305e-1 4.042115906696139e-1 4.092959465750147e-1
      4.144442558047863e-1 4.196573227927208e-1 4.249359620911418e-1 4.302809984981777e-1
      4.356932671866433e-1 4.411736138345309e-1 4.467228947571547e-1 4.523419770409500e-1
      4.580317386789540e-1 4.637930687080003e-1 4.696268673476255e-1 4.755340461407373e-1
      4.815155280960409e-1 4.875722478322595e-1 4.937051517241763e-1 4.999151980505001e-1
      5.062033571436046e-1 5.125706115411424e-1 5.190179561395656e-1 5.255463983495869e-1
      5.321569582535817e-1 5.388506687649853e-1 5.456285757896847e-1 5.524917383894402e-1
      5.594412289473732e-1 5.664781333355203e-1 5.736035510845097e-1 5.808185955553627e-1
      5.881243941134546e-1 5.955220883046763e-1 6.030128340337937e-1 6.105978017450679e-1
      6.182781766051368e-1 6.260551586881959e-1 6.339299631635201e-1 6.419038204853281e-1
      6.499779765850504e-1 6.581536930660058e-1 6.664322474005257e-1 6.748149331295698e-1
      6.833030600648362e-1 6.918979544934284e-1 7.006009593850888e-1 7.094134346020356e-1
      7.183367571114530e-1 7.273723212006354e-1 7.365215386948558e-1 7.457858391779633e-1
      7.551666702157541e-1 7.646654975821661e-1 7.742838054882978e-1 7.840230968143297e-1
      7.938848933443477e-1 8.038707360041206e-1 8.139821851018835e-1 8.242208205721267e-1
      8.345882422224745e-1 8.450860699836539e-1 8.557159441626078e-1 8.664795256988063e-1
      8.773784964237601e-1 8.884145593238204e-1 8.995894388062700e-1 9.109048809687605e-1
      9.223626538721545e-1 9.339645478167757e-1 9.457123756221588e-1 9.576079729103013e-1
      9.696531983924778e-1 9.818499341596798e-1 9.942000859766816e-1 1.006705583579833e0
      1.019368380978579e0 1.032190456760772e0 1.045173814401845e0 1.058320482577837e0
      1.071632515482403e0 1.085111993147767e0 1.098761021769737e0 1.112581734036806e0
      1.126576289463383e0 1.140746874727225e0 1.155095704011113e0 1.169625019348810e0
      1.184337090975404e0 1.199234217682013e0 1.214318727174996e0 1.229592976439653e0
      1.245059352108503e0 1.260720270834215e0 1.276578179667197e0 1.292635556437971e0
      1.308894910144329e0 1.325358781343361e0 1.342029742548444e0 1.358910398631179e0
      1.376003387228425e0 1.393311379154428e0 1.410837078818135e0 1.428583224645780e0
      1.446552589508750e0 1.464747981156864e0 1.483172242657089e0 1.501828252837764e0
      1.520718926738441e0 1.539847216065345e0 1.559216109652602e0 1.578828633929246e0
      1.598687853392090e0 1.618796871084585e0 1.639158829081651e0 1.659776908980657e0
      1.680654332398535e0 1.701794361475167e0 1.723200299383108e0 1.744875490843705e0
      1.766823322649721e0 1.789047224194536e0 1.811550668007972e0 1.834337170298916e0
      1.857410291504704e0 1.880773636847470e0 1.904430856897460e0 1.928385648143433e0
      1.952641753570262e0 1.977202963243763e0 2.002073114902922e0 2.027256094559537e0
      2.052755837105409e0 2.078576326927196e0 2.104721598528958e0 2.131195737162579e0
      2.158002879466088e0 2.185147214110000e0 2.212632982451837e0 2.240464479198816e0
      2.268646053078928e0 2.297182107520436e0 2.326077101339892e0 2.355335549438878e0
      2.384962023509427e0 2.414961152748392e0 2.445337624580754e0 2.476096185392032e0
      2.507241641269938e0 2.538778858755310e0 2.570712765602549e0 2.603048351549574e0
      2.635790669097466e0 2.668944834299968e0 2.702516027562834e0 2.736509494453319e0
      2.770930546519789e0 2.805784562121650e0 2.841076987269760e0 2.876813336477343e0
      2.912999193621672e0 2.949640212816552e0 2.986742119295769e0 3.024310710307706e0
      3.062351856021130e0 3.100871500442462e0 3.139875662344515e0 3.179370436206930e0
      3.219361993168488e0 3.259856581991316e0 3.300860530037309e0 3.342380244256780e0
      3.384422212189535e0 3.426993002978611e0 3.470099268396668e0 3.513747743885384e0
      3.557945249607863e0 3.602698691514284e0 3.648015062421007e0 3.693901443103171e0
      3.740365003401121e0 3.787413003340691e0 3.835052794267578e0 3.883291819996051e0
      3.932137617972011e0 3.981597820450774e0 4.031680155689614e0 4.082392449155290e0
      4.133742624746846e0 4.185738706033677e0 4.238388817509276e0 4.291701185860687e0
      4.345684141253916e0 4.400346118635587e0 4.455695659050859e0 4.511741410978042e0
      4.568492131679908e0 4.625956688572010e0 4.684144060608291e0 4.743063339683999e0
      4.802723732056370e0 4.863134559783101e0 4.924305262178915e0 4.986245397290528e0
      5.048964643390055e0 5.112472800487309e0 5.176779791861055e0 5.241895665609511e0
      5.307830596220447e0 5.374594886160899e0 5.442198967487011e0 5.510653403474042e0
      5.579968890266869e0 5.650156258551344e0 5.721226475246540e0 5.793190645218419e0
      5.866060013014962e0 5.939845964623119e0 6.014560029247970e0 6.090213881114098e0
      6.166819341289785e0 6.244388379534053e0 6.322933116166918e0 6.402465823963302e0
      6.482998930070589e0 6.564545017950461e0 6.647116829345071e0 6.730727266267918e0
      6.815389393019903e0 6.901116438230552e0 6.987921796925106e0 7.075819032617479e0
      7.164821879429550e0 7.254944244237239e0 7.346200208843378e0 7.438604032178107e0
      7.532170152526835e0 7.626913189786201e0 7.722847947748559e0 7.819989416414996e0
      7.918352774337641e0 8.017953390991304e0 8.118806829174947e0 8.220928847443504e0
      8.324335402570069e0 8.429042652039278e0 8.535066956571905e0 8.642424882681208e0
      8.751133205261594e0 8.861208910209607e0 8.972669197078110e0 9.085531481763709e0
      9.199813399227978e0 9.315532806253053e0 9.432707784231690e0 9.551356641992607e0
      9.671497918661238e0 9.793150386556457e0 9.916333054123912e0 1.004106516890600e1
      1.016736622054942e1 1.029525594385050e1 1.042475432183864e1 1.055588158889892e1
      1.068865823393355e1 1.082310500356348e1 1.095924290537001e1 1.109709321117724e1
      1.123667746037595e1 1.137801746328902e1 1.152113530457948e1 1.166605334670124e1
      1.181279423339317e1 1.196138089321740e1 1.211183654314180e1 1.226418469216779e1
      1.241844914500362e1 1.257465400578387e1 1.273282368183588e1 1.289298288749329e1
      1.305515664795784e1 1.321937030320958e1 1.338564951196620e1 1.355402025569239e1
      1.372450884265939e1 1.389714191205577e1 1.407194643814990e1 1.424894973450457e1
      1.442817945824498e1 1.460966361438008e1 1.479343056017852e1 1.497950900959948e1
      1.516792803777921e1 1.535871708557427e1 1.555190596416146e1 1.574752485969616e1
      1.594560433802880e1 1.614617534948081e1 1.634926923368086e1 1.655491772446149e1
      1.676315295481781e1 1.697400746192824e1 1.718751419223846e1 1.740370650660952e1
      1.762261818553031e1 1.784428343439610e1 1.806873688885301e1 1.829601362020991e1
      1.852614914091852e1 1.875917941012212e1 1.899514083927439e1 1.923407029782876e1
      1.947600511899913e1 1.972098310559363e1 1.996904253592100e1 2.022022216977193e1
      2.047456125447529e1 2.073209953103044e1 2.099287724031714e1 2.125693512938294e1
      2.152431445781028e1 2.179505700416324e1 2.206920507251546e1 2.234680149906044e1
      2.262788965880453e1 2.291251347234461e1 2.320071741273066e1 2.349254651241462e1
      2.378804637028715e1 2.408726315880215e1 2.439024363119164e1 2.469703512877087e1
      2.500768558833545e1 2.532224354965177e1 2.564075816304119e1 2.596327919706011e1
      2.628985704627633e1 2.662054273914310e1 2.695538794597282e1 2.729444498701022e1
      2.763776684060782e1 2.798540715150378e1 2.833742023920388e1 2.869386110646933e1
      2.905478544791073e1 2.942024965869078e1 2.979031084333602e1 3.016502682465934e1
      3.054445615279528e1 3.092865811434823e1 3.131769274165638e1 3.171162082217181e1
      3.211050390795846e1 3.251440432531009e1 3.292338518448858e1 3.333751038958528e1
      3.375684464850611e1 3.418145348308204e1 3.461140323930748e1 3.504676109770643e1
      3.548759508383010e1 3.593397407888576e1 3.638596783049940e1 3.684364696361446e1
      3.730708299152649e1 3.777634832705781e1 3.825151629387188e1 3.873266113793010e1
      3.921985803909340e1 3.971318312286868e1 4.021271347230399e1 4.071852714003282e1
      4.123070316046970e1 4.174932156215999e1 4.227446338028396e1 4.280621066931915e1
      4.334464651586141e1 4.388985505160707e1 4.444192146649923e1 4.500093202203823e1
      4.556697406476079e1 4.614013603988777e1 4.672050750514376e1 4.730817914475110e1
      4.790324278359896e1 4.850579140159168e1 4.911591914817676e1 4.973372135705578e1
      5.035929456108097e1 5.099273650733803e1 5.163414617241989e1 5.228362377789177e1