<UPF version="2.0.1">
  <PP_INFO>
Generated using "atomic" code by A. Dal Corso  v.6.3
Author: ADC
Generation date:  4Sep2018
Pseudopotential type: USPP
Element: Rh
Functional: PBESOL
    Suggested minimum cutoff for wavefunctions:  53. Ry
    Suggested minimum cutoff for charge density: 361. Ry
    The Pseudo was generated with a Scalar-Relativistic Calculation
    Local Potential by smoothing AE potential with Bessel fncs, cutoff radius:   1.2000
    Pseudopotential contains additional information for GIPAW reconstruction.
    Valence configuration:
    nl pn  l   occ       Rcut    Rcut US       E pseu
    4S  1  0  2.00      0.900      1.400    -6.322726
    5S  2  0  2.00      0.900      1.400    -0.393880
    4P  2  1  6.00      0.900      1.300    -3.955745
    4D  3  2  7.00      1.100      1.700    -0.638152
    Generation configuration:
    4S  1  0  2.00      0.900      1.400    -6.322791
    5S  2  0  2.00      0.900      1.400    -0.393896
    4P  2  1  6.00      0.900      1.300    -3.955788
    5P  2  1  0.00      0.900      1.300    -2.500000
    4D  3  2  7.00      1.100      1.700    -0.638182
    4D  3  2  0.00      1.100      1.700     0.500000
    Pseudization used: troullier-martins

    <PP_INPUTFILE>
 &amp;input
   title='Rh',
   zed=45.,
   rel=1,
   config='[Kr] 5s2 5p0 4d7',
   iswitch=3,
   dft='PBESOL'
 /
 &amp;inputp
   lpaw=.false.,
   use_xsd=.FALSE.,
   pseudotype=3,
   file_pseudopw='Rh.pbesol-spn-rrkjus_psl.1.0.0.UPF',
   author='ADC',
   lloc=-1,
   rcloc=1.2,
   which_augfun='PSQ',
   rmatch_augfun_nc=.true.,
   nlcc=.true.,
   new_core_ps=.true.,
   rcore=1.0,
   tm=.true.
 /
6
4S  1  0  2.00  0.00  0.90  1.40  0.0
5S  2  0  2.00  0.00  0.90  1.40  0.0
4P  2  1  6.00  0.00  0.90  1.30  0.0
5P  2  1  0.00 -2.50  0.90  1.30  0.0
4D  3  2  7.00  0.00  1.10  1.70  0.0
4D  3  2  0.00  0.50  1.10  1.70  0.0
</PP_INPUTFILE>
  </PP_INFO>
  <!--
 END OF HUMAN READABLE SECTION 
-->
  <PP_HEADER generated="Generated using &quot;atomic&quot; code by A. Dal Corso  v.6.3" author="ADC" date=" 4Sep2018" comment="" element="Rh" pseudo_type="USPP" relativistic="scalar" is_ultrasoft="true" is_paw="false" is_coulomb="false" has_so="false" has_wfc="false" has_gipaw="true" paw_as_gipaw="false" core_correction="true" functional="PBESOL" z_valence="1.700000000000e1" total_psenergy="-2.256429804485e2" wfc_cutoff="5.289753217029e1" rho_cutoff="3.612624179625e2" l_max="2" l_max_rho="4" l_local="-1" mesh_size="1233" number_of_wfc="4" number_of_proj="6"/>
  <PP_MESH dx="1.250000000000e-2" mesh="1233" xmin="-7.000000000000e0" rmax="1.000000000000e2" zmesh="4.500000000000e1">
    <PP_R>
      2.026404367898925e-5 2.051893397042272e-5 2.077703038703516e-5 2.103837325691676e-5
      2.130300341542267e-5 2.157096221155353e-5 2.184229151441642e-5 2.211703371976692e-5
      2.239523175663356e-5 2.267692909402566e-5 2.296216974772527e-5 2.325099828716486e-5
      2.354345984239134e-5 2.383960011111770e-5 2.413946536586351e-5 2.444310246118485e-5
      2.475055884099563e-5 2.506188254598072e-5 2.537712222110238e-5 2.569632712320129e-5
      2.601954712869276e-5 2.634683274136029e-5 2.667823510024668e-5 2.701380598764477e-5
      2.735359783718847e-5 2.769766374204554e-5 2.804605746321366e-5 2.839883343792055e-5
      2.875604678812996e-5 2.911775332915467e-5 2.948400957837758e-5 2.985487276408282e-5
      3.023040083439764e-5 3.061065246634704e-5 3.099568707502219e-5 3.138556482286403e-5
      3.178034662906388e-5 3.218009417908212e-5 3.258486993428674e-5 3.299473714171304e-5
      3.340975984394605e-5 3.383000288912736e-5 3.425553194108779e-5 3.468641348960738e-5
      3.512271486080482e-5 3.556450422765698e-5 3.601185062065126e-5 3.646482393857169e-5
      3.692349495942075e-5 3.738793535147869e-5 3.785821768450164e-5 3.833441544106094e-5
      3.881660302802488e-5 3.930485578818491e-5 3.979925001202822e-5 4.029986294965812e-5
      4.080677282286461e-5 4.132005883734669e-5 4.183980119508838e-5 4.236608110689059e-5
      4.289898080506021e-5 4.343858355625927e-5 4.398497367451547e-5 4.453823653439643e-5
      4.509845858434965e-5 4.566572736021019e-5 4.624013149887843e-5 4.682176075216964e-5
      4.741070600083796e-5 4.800705926877677e-5 4.861091373739744e-5 4.922236376018927e-5
      4.984150487746230e-5 5.046843383127571e-5 5.110324858055414e-5 5.174604831639363e-5
      5.239693347756074e-5 5.305600576618607e-5 5.372336816365562e-5 5.439912494670185e-5
      5.508338170369687e-5 5.577624535115109e-5 5.647782415041908e-5 5.718822772461555e-5
      5.790756707574440e-5 5.863595460204270e-5 5.937350411554334e-5 6.012033085985836e-5
      6.087655152818597e-5 6.164228428154419e-5 6.241764876723361e-5 6.320276613753261e-5
      6.399775906862761e-5 6.480275177978150e-5 6.561787005274326e-5 6.644324125140134e-5
      6.727899434168478e-5 6.812525991171428e-5 6.898217019220686e-5 6.984985907713734e-5
      7.072846214465928e-5 7.161811667828947e-5 7.251896168835886e-5 7.343113793373293e-5
      7.435478794380604e-5 7.529005604077136e-5 7.623708836217188e-5 7.719603288373453e-5
      7.816703944249173e-5 7.915025976019400e-5 8.014584746701624e-5 8.115395812556319e-5
      8.217474925517628e-5 8.320838035654624e-5 8.425501293663572e-5 8.531481053391474e-5
      8.638793874391402e-5 8.747456524509962e-5 8.857485982507312e-5 8.968899440710130e-5
      9.081714307697926e-5 9.195948211023193e-5 9.311618999965733e-5 9.428744748321646e-5
      9.547343757227422e-5 9.667434558019487e-5 9.789035915129791e-5 9.912166829017782e-5
      1.003684653913926e-4 1.016309452695261e-4 1.029093051896277e-4 1.042037448980358e-4
      1.055144666535884e-4 1.068416752592263e-4 1.081855780939947e-4 1.095463851454456e-4
      1.109243090424493e-4 1.123195650884181e-4 1.137323712949478e-4 1.151629484158828e-4
      1.166115199818085e-4 1.180783123349795e-4 1.195635546646849e-4 1.210674790430605e-4
      1.225903204613505e-4 1.241323168666244e-4 1.256937091989580e-4 1.272747414290797e-4
      1.288756605964920e-4 1.304967168480723e-4 1.321381634771577e-4 1.338002569631235e-4
      1.354832570114586e-4 1.371874265943445e-4 1.389130319917458e-4 1.406603428330166e-4
      1.424296321390307e-4 1.442211763648419e-4 1.460352554428803e-4 1.478721528266927e-4
      1.497321555352326e-4 1.516155541977073e-4 1.535226430989896e-4 1.554537202256002e-4
      1.574090873122695e-4 1.593890498890822e-4 1.613939173292198e-4 1.634240028972986e-4
      1.654796237983186e-4 1.675611012272284e-4 1.696687604191102e-4 1.718029307000015e-4
      1.739639455383505e-4 1.761521425971221e-4 1.783678637865591e-4 1.806114553176047e-4
      1.828832677560007e-4 1.851836560770624e-4 1.875129797211451e-4 1.898716026498077e-4
      1.922598934026808e-4 1.946782251550540e-4 1.971269757761835e-4 1.996065278883359e-4
      2.021172689265739e-4 2.046595911992920e-4 2.072338919495183e-4 2.098405734169825e-4
      2.124800429009668e-4 2.151527128239487e-4 2.178590007960406e-4 2.205993296802447e-4
      2.233741276585242e-4 2.261838282987082e-4 2.290288706222389e-4 2.319096991727668e-4
      2.348267640856145e-4 2.377805211581095e-4 2.407714319208034e-4 2.437999637095886e-4
      2.468665897387180e-4 2.499717891747481e-4 2.531160472114084e-4 2.562998551454138e-4
      2.595237104532323e-4 2.627881168688138e-4 2.660935844623027e-4 2.694406297197355e-4
      2.728297756237430e-4 2.762615517352687e-4 2.797364942763111e-4 2.832551462137126e-4
      2.868180573439971e-4 2.904257843792773e-4 2.940788910342431e-4 2.977779481142407e-4
      3.015235336044652e-4 3.053162327602698e-4 3.091566381986138e-4 3.130453499906607e-4
      3.169829757555390e-4 3.209701307552862e-4 3.250074379909827e-4 3.290955283000978e-4
      3.332350404550604e-4 3.374266212630654e-4 3.416709256671430e-4 3.459686168484909e-4
      3.503203663300997e-4 3.547268540816805e-4 3.591887686259084e-4 3.637068071460095e-4
      3.682816755946945e-4 3.729140888044657e-4 3.776047705993130e-4 3.823544539078085e-4
      3.871638808776336e-4 3.920338029915370e-4 3.969649811847563e-4 4.019581859639181e-4
      4.070141975274262e-4 4.121338058873753e-4 4.173178109929869e-4 4.225670228556057e-4
      4.278822616752652e-4 4.332643579688444e-4 4.387141526998397e-4 4.442324974097651e-4
      4.498202543512086e-4 4.554782966225613e-4 4.612075083044387e-4 4.670087845978229e-4
      4.728830319639372e-4 4.788311682658838e-4 4.848541229120616e-4 4.909528370013876e-4
      4.971282634703467e-4 5.033813672418883e-4 5.097131253761984e-4 5.161245272233684e-4
      5.226165745779802e-4 5.291902818356418e-4 5.358466761514861e-4 5.425867976006674e-4
      5.494116993408755e-4 5.563224477768921e-4 5.633201227272211e-4 5.704058175928097e-4
      5.775806395278966e-4 5.848457096130070e-4 5.922021630301219e-4 5.996511492400552e-4
      6.071938321620570e-4 6.148313903556796e-4 6.225650172049294e-4 6.303959211047355e-4
      6.383253256497652e-4 6.463544698256106e-4 6.544846082023842e-4 6.627170111307492e-4
      6.710529649404111e-4 6.794937721411132e-4 6.880407516261531e-4 6.966952388784642e-4
      7.054585861792878e-4 7.143321628194682e-4 7.233173553134095e-4 7.324155676157193e-4
      7.416282213405796e-4 7.509567559838789e-4 7.604026291481341e-4 7.699673167702451e-4
      7.796523133521120e-4 7.894591321941548e-4 7.993893056317704e-4 8.094443852747608e-4
      8.196259422497782e-4 8.299355674458138e-4 8.403748717627796e-4 8.509454863632145e-4
      8.616490629271558e-4 8.724872739102180e-4 8.834618128049183e-4 8.945743944052856e-4
      9.058267550748051e-4 9.172206530177233e-4 9.287578685537760e-4 9.404402043963628e-4
      9.522694859342264e-4 9.642475615166751e-4 9.763763027423870e-4 9.886576047518560e-4
      1.001093386523507e-3 1.013685591173542e-3 1.026436186259558e-3 1.039347164087977e-3
      1.052420542025354e-3 1.065658362813589e-3 1.079062694889110e-3 1.092635632706080e-3
      1.106379297063643e-3 1.120295835437320e-3 1.134387422314542e-3 1.148656259534431e-3
      1.163104576631831e-3 1.177734631185684e-3 1.192548709171781e-3 1.207549125319944e-3
      1.222738223475717e-3 1.238118376966586e-3 1.253691988972830e-3 1.269461492903007e-3
      1.285429352774189e-3 1.301598063596968e-3 1.317970151765305e-3 1.334548175451288e-3
      1.351334725004844e-3 1.368332423358494e-3 1.385543926437188e-3 1.402971923573297e-3
      1.420619137926835e-3 1.438488326910946e-3 1.456582282622764e-3 1.474903832279681e-3
      1.493455838661106e-3 1.512241200555782e-3 1.531262853214724e-3 1.550523768809859e-3
      1.570026956898436e-3 1.589775464893272e-3 1.609772378538921e-3 1.630020822393825e-3
      1.650523960318531e-3 1.671284995970054e-3 1.692307173302452e-3 1.713593777073705e-3
      1.735148133358959e-3 1.756973610070237e-3 1.779073617482680e-3 1.801451608767405e-3
      1.824111080531084e-3 1.847055573362279e-3 1.870288672384676e-3 1.893814007817264e-3
      1.917635255541567e-3 1.941756137676008e-3 1.966180423157496e-3 1.990911928330327e-3
      2.015954517542502e-3 2.041312103749531e-3 2.066988649125856e-3 2.092988165683926e-3
      2.119314715901103e-3 2.145972413354419e-3 2.172965423363334e-3 2.200297963640585e-3
      2.227974304951194e-3 2.255998771779802e-3 2.284375743006365e-3 2.313109652590370e-3
      2.342204990263652e-3 2.371666302231916e-3 2.401498191885096e-3 2.431705320516644e-3
      2.462292408051866e-3 2.493264233785416e-3 2.524625637128084e-3 2.556381518362943e-3
      2.588536839411045e-3 2.621096624606723e-3 2.654065961482658e-3 2.687450001564816e-3
      2.721253961177377e-3 2.755483122257806e-3 2.790142833182163e-3 2.825238509600791e-3
      2.860775635284538e-3 2.896759762981593e-3 2.933196515285117e-3 2.970091585511789e-3
      3.007450738591393e-3 3.045279811967610e-3 3.083584716510118e-3 3.122371437438182e-3
      3.161646035255860e-3 3.201414646698963e-3 3.241683485693942e-3 3.282458844328819e-3
      3.323747093836337e-3 3.365554685589482e-3 3.407888152109522e-3 3.450754108086734e-3
      3.494159251413948e-3 3.538110364233119e-3 3.582614313995042e-3 3.627678054532409e-3
      3.673308627146368e-3 3.719513161706724e-3 3.766298877766005e-3 3.813673085687530e-3
      3.861643187787669e-3 3.910216679492478e-3 3.959401150508856e-3 4.009204286010464e-3
      4.059633867838550e-3 4.110697775717872e-3 4.162403988487934e-3 4.214760585349674e-3
      4.267775747127872e-3 4.321457757549414e-3 4.375815004537645e-3 4.430855981523003e-3
      4.486589288770121e-3 4.543023634721647e-3 4.600167837358951e-3 4.658030825579951e-3
      4.716621640594290e-3 4.775949437336014e-3 4.836023485894066e-3 4.896853172960755e-3
      4.958448003298440e-3 5.020817601224686e-3 5.083971712116055e-3 5.147920203930864e-3
      5.212673068751062e-3 5.278240424343514e-3 5.344632515740937e-3 5.411859716842685e-3
      5.479932532035702e-3 5.548861597835860e-3 5.618657684549921e-3 5.689331697958446e-3
      5.760894681019813e-3 5.833357815595720e-3 5.906732424198372e-3 5.981029971759641e-3
      6.056262067422503e-3 6.132440466354961e-3 6.209577071586832e-3 6.287683935869623e-3
      6.366773263559780e-3 6.446857412525675e-3 6.527948896078510e-3 6.610060384927571e-3
      6.693204709160051e-3 6.777394860245761e-3 6.862643993067109e-3 6.948965427974531e-3
      7.036372652867852e-3 7.124879325303796e-3 7.214499274629994e-3 7.305246504145870e-3
      7.397135193290659e-3 7.490179699858989e-3 7.584394562244309e-3 7.679794501710545e-3
      7.776394424692343e-3 7.874209425124196e-3 7.973254786798929e-3 8.073545985755811e-3
      8.175098692698718e-3 8.277928775444733e-3 8.382052301403489e-3 8.487485540087757e-3
      8.594244965655589e-3 8.702347259484423e-3 8.811809312777621e-3 8.922648229203705e-3
      9.034881327568876e-3 9.148526144523084e-3 9.263600437300186e-3 9.380122186492567e-3
      9.498109598860596e-3 9.617581110177500e-3 9.738555388109990e-3 9.861051335135109e-3
      9.985088091493816e-3 1.011068503818164e-2 1.023786179997702e-2 1.036663824850775e-2
      1.049703450535588e-2 1.062907094520187e-2 1.076276819900806e-2 1.089814715724236e-2
      1.103522897314244e-2 1.117403506602091e-2 1.131458712461221e-2 1.145690711046143e-2
      1.160101726135592e-2 1.174694009479995e-2 1.189469841153312e-2 1.204431529909305e-2
      1.219581413542281e-2 1.234921859252382e-2 1.250455264015458e-2 1.266184054957607e-2
      1.282110689734415e-2 1.298237656914969e-2 1.314567476370701e-2 1.331102699669124e-2
      1.347845910472519e-2 1.364799724941640e-2 1.381966792144490e-2 1.399349794470245e-2
      1.416951448048386e-2 1.434774503173093e-2 1.452821744732994e-2 1.471095992646298e-2
      1.489600102301422e-2 1.508336965003144e-2 1.527309508424383e-2 1.546520697063649e-2
      1.565973532708252e-2 1.585671054903340e-2 1.605616341426828e-2 1.625812508770315e-2
      1.646262712626040e-2 1.666970148379960e-2 1.687938051611042e-2 1.709169698596824e-2
      1.730668406825344e-2 1.752437535513504e-2 1.774480486131949e-2 1.796800702936562e-2
      1.819401673506628e-2 1.842286929289779e-2 1.865460046153794e-2 1.888924644945330e-2
      1.912684392055685e-2 1.936742999993685e-2 1.961104227965768e-2 1.985771882463369e-2
      2.010749817857688e-2 2.036041937001951e-2 2.061652191841230e-2 2.087584584029946e-2
      2.113843165557143e-2 2.140432039379605e-2 2.167355360062963e-2 2.194617334430849e-2
      2.222222222222222e-2 2.250174336756966e-2 2.278478045609843e-2 2.307137771292946e-2
      2.336157991946722e-2 2.365543242039688e-2 2.395298113076960e-2 2.425427254317671e-2
      2.455935373501440e-2 2.486827237583959e-2 2.518107673481836e-2 2.549781568826828e-2
      2.581853872729519e-2 2.614329596552647e-2 2.647213814694131e-2 2.680511665379957e-2
      2.714228351467045e-2 2.748369141256189e-2 2.782939369315256e-2 2.817944437312712e-2
      2.853389814861647e-2 2.889281040374425e-2 2.925623721928049e-2 2.962423538140452e-2
      2.999686239057787e-2 3.037417647052881e-2 3.075623657735004e-2 3.114310240871053e-2
      3.153483441318351e-2 3.193149379969167e-2 3.233314254707114e-2 3.273984341375591e-2
      3.315165994758380e-2 3.356865649572607e-2 3.399089821474177e-2 3.441845108075852e-2
      3.485138189978154e-2 3.528975831813209e-2 3.573364883301742e-2 3.618312280323358e-2
      3.663825046000285e-2 3.709910291794762e-2 3.756575218620204e-2 3.803827117966367e-2
      3.851673373038659e-2 3.900121459911775e-2 3.949178948697863e-2 3.998853504729354e-2
      4.049152889756689e-2 4.100084963161113e-2 4.151657683182716e-2 4.203879108163934e-2
      4.256757397808659e-2 4.310300814457234e-2 4.364517724377441e-2 4.419416599071760e-2
      4.475006016601061e-2 4.531294662924924e-2 4.588291333258861e-2 4.646004933448571e-2
      4.704444481361500e-2 4.763619108295910e-2 4.823538060407651e-2 4.884210700154895e-2
      4.945646507761043e-2 5.007855082696019e-2 5.070846145176231e-2 5.134629537683344e-2
      5.199215226502205e-2 5.264613303278091e-2 5.330833986593552e-2 5.397887623565087e-2
      5.465784691459890e-2 5.534535799332961e-2 5.604151689684777e-2 5.674643240139837e-2
      5.746021465146326e-2 5.818297517697115e-2 5.891482691072461e-2 5.965588420604605e-2
      6.040626285464544e-2 6.116608010471349e-2 6.193545467924114e-2 6.271450679457111e-2
      6.350335817918146e-2 6.430213209270580e-2 6.511095334519345e-2 6.592994831661041e-2
      6.675924497658738e-2 6.759897290441479e-2 6.844926330928958e-2 6.931024905081768e-2
      7.018206465977263e-2 7.106484635911721e-2 7.195873208528807e-2 7.286386150974831e-2
      7.378037606081225e-2 7.470841894574289e-2 7.564813517312929e-2 7.659967157554394e-2
      7.756317683248537e-2 7.853880149361052e-2 7.952669800225733e-2 8.052702071926534e-2
      8.153992594709438e-2 8.256557195424675e-2 8.360411899999811e-2 8.465572935943694e-2
      8.572056734882162e-2 8.679879935125456e-2 8.789059384267951e-2 8.899612141820732e-2
      9.011555481877059e-2 9.124906895811581e-2 9.239684095013358e-2 9.355905013653244e-2
      9.473587811486272e-2 9.592750876688989e-2 9.713412828732793e-2 9.835592521293195e-2
      9.959309045195699e-2 1.008458173139891e-1 1.021143015401487e-1 1.033987413336771e-1
      1.046993373909054e-1 1.060162929326134e-1 1.073498137357841e-1 1.087001081657557e-1
      1.100673872087803e-1 1.114518645049903e-1 1.128537563817796e-1 1.142732818876065e-1
      1.157106628262189e-1 1.171661237913131e-1 1.186398922016262e-1 1.201321983364704e-1
      1.216432753717157e-1 1.231733594162228e-1 1.247226895487368e-1 1.262915078552433e-1
      1.278800594667940e-1 1.294885925978106e-1 1.311173585848671e-1 1.327666119259627e-1
      1.344366103202878e-1 1.361276147084886e-1 1.378398893134416e-1 1.395737016815370e-1
      1.413293227244851e-1 1.431070267616459e-1 1.449070915628914e-1 1.467297983920096e-1
      1.485754320506505e-1 1.504442809228283e-1 1.523366370199819e-1 1.542527960266008e-1
      1.561930573464289e-1 1.581577241492444e-1 1.601471034182326e-1 1.621615059979519e-1
      1.642012466429033e-1 1.662666440667130e-1 1.683580209919300e-1 1.704757042004539e-1
      1.726200245845950e-1 1.747913171987754e-1 1.769899213118840e-1 1.792161804602861e-1
      1.814704425015033e-1 1.837530596685661e-1 1.860643886250504e-1 1.884047905208085e-1
      1.907746310483977e-1 1.931742805002223e-1 1.956041138263914e-1 1.980645106933053e-1
      2.005558555429807e-1 2.030785376531184e-1 2.056329511979309e-1 2.082194953097319e-1
      2.108385741413006e-1 2.134905969290336e-1 2.161759780568864e-1 2.188951371211240e-1
      2.216484989958828e-1 2.244364938995568e-1 2.272595574620225e-1 2.301181307927043e-1
      2.330126605495016e-1 2.359435990085780e-1 2.389114041350301e-1 2.419165396544478e-1
      2.449594751253690e-1 2.480406860126525e-1 2.511606537617687e-1 2.543198658740249e-1
      2.575188159827423e-1 2.607580039303825e-1 2.640379358466532e-1 2.673591242275898e-1
      2.707220880156327e-1 2.741273526807170e-1 2.775754503023736e-1 2.810669196528716e-1
      2.846023062814009e-1 2.881821625993140e-1 2.918070479664451e-1 2.954775287785064e-1
      2.991941785555936e-1 3.029575780317947e-1 3.067683152459355e-1 3.106269856334588e-1
      3.145341921194624e-1 3.184905452129100e-1 3.224966631020206e-1 3.265531717508654e-1
      3.306607049971744e-1 3.348199046513732e-1 3.390314205968706e-1 3.432959108916006e-1
      3.476140418708483e-1 3.519864882513652e-1 3.564139332367928e-1 3.608970686244191e-1
      3.654365949132681e-1 3.700332214135588e-1 3.746876663575344e-1 3.794006570116858e-1
      3.841729297903925e-1 3.890052303709842e-1 3.938983138102587e-1 3.988529446624590e-1
      4.038698970987348e-1 4.089499550281127e-1 4.140939122199781e-1 4.193025724281085e-1
      4.245767495162593e-1 4.299172675853293e-1 4.353249611021337e-1 4.408006750297852e-1
      4.463452649597260e-1 4.519595972454139e-1 4.576445491376896e-1 4.634010089218541e-1
      4.692298760564584e-1 4.751320613138520e-1 4.811084869224906e-1 4.871600867110327e-1
      4.932878062542592e-1 4.994926030208139e-1 5.057754465228163e-1 5.121373184673467e-1
      5.185792129098382e-1 5.251021364094055e-1 5.317071081861144e-1 5.383951602802439e-1
      5.451673377135417e-1 5.520246986525077e-1 5.589683145737422e-1 5.659992704313577e-1
      5.731186648265125e-1 5.803276101790665e-1 5.876272329013956e-1 5.950186735744035e-1
      6.025030871257313e-1 6.100816430102244e-1 6.177555253926598e-1 6.255259333327700e-1
      6.333940809726071e-1 6.413611977262452e-1 6.494285284718876e-1 6.575973337463773e-1
      6.658688899421561e-1 6.742444895067102e-1 6.827254411445097e-1 6.913130700215035e-1
      7.000087179721771e-1 7.088137437092112e-1 7.177295230357938e-1 7.267574490605816e-1
      7.358989324153847e-1 7.451554014755770e-1 7.545283025832790e-1 7.640191002733606e-1
      7.736292775022678e-1 7.833603358797453e-1 7.932137959034646e-1 8.031911971965986e-1
      8.132940987484009e-1 8.235240791577910e-1 8.338827368800223e-1 8.443716904764401e-1
      8.549925788673807e-1 8.657470615882671e-1 8.766368190489013e-1 8.876635527960429e-1
      8.988289857792763e-1 9.101348626202178e-1 9.215829498851292e-1 9.331750363609336e-1
      9.449129333347285e-1 9.567984748767991e-1 9.688335181271890e-1 9.810199435858953e-1
      9.933596554066856e-1 1.005854581694639e0 1.018506674807411e0 1.031317911660288e0
      1.044290294035097e0 1.057425848892971e0 1.070726628691085e0 1.084194711703343e0
      1.097832202345115e0 1.111641231502063e0 1.125623956863081e0 1.139782563257460e0
      1.154119262996255e0 1.168636296217965e0 1.183335931238571e0 1.198220464905946e0
      1.213292222958761e0 1.228553560389877e0 1.244006861814315e0 1.259654541841864e0
      1.275499045454361e0 1.291542848387733e0 1.307788457518832e0 1.324238411257133e0
      1.340895279941379e0 1.357761666241186e0 1.374840205563731e0 1.392133566465531e0
      1.409644451069408e0 1.427375595486710e0 1.445329770244822e0 1.463509780720082e0
      1.481918467576116e0 1.500558707207692e0 1.519433412190183e0 1.538545531734637e0
      1.557898052148619e0 1.577493997302821e0 1.597336429103535e0 1.617428447971105e0
      1.637773193324352e0 1.658373844071131e0 1.679233619105037e0 1.700355777808353e0
      1.721743620561355e0 1.743400489257981e0 1.765329767828030e0 1.787534882765896e0
      1.810019303665959e0 1.832786543764736e0 1.855840160489806e0 1.879183756015689e0
      1.902820977826681e0 1.926755519286776e0 1.950991120216776e0 1.975531567478630e0
      2.000380695567151e0 2.025542387209165e0 2.051020573970175e0 2.076819236868706e0
      2.102942406998314e0 2.129394166157486e0 2.156178647487410e0 2.183300036117779e0
      2.210762569820754e0 2.238570539673092e0 2.266728290726660e0 2.295240222687352e0
      2.324110790602538e0 2.353344505557200e0 2.382945935378768e0 2.412919705350880e0
      2.443270498936080e0 2.474003058507608e0 2.505122186090429e0 2.536632744111534e0
      2.568539656159726e0 2.600847907754932e0 2.633562547127185e0 2.666688686005457e0
      2.700231500416332e0 2.734196231492812e0 2.768588186293232e0 2.803412738630493e0
      2.838675329911757e0 2.874381469988644e0 2.910536738018191e0 2.947146783334592e0
      2.984217326331901e0 3.021754159357891e0 3.059763147619083e0 3.098250230097226e0
      3.137221420477267e0 3.176682808086978e0 3.216640558848470e0 3.257100916241582e0
      3.298070202279480e0 3.339554818496466e0 3.381561246948214e0 3.424096051224642e0
      3.467165877475447e0 3.510777455448610e0 3.554937599541926e0 3.599653209867741e0
      3.644931273331155e0 3.690778864721691e0 3.737203147818787e0 3.784211376511136e0
      3.831810895930096e0 3.880009143597432e0 3.928813650587388e0 3.978232042703481e0
      4.028272041670030e0 4.078941466338667e0 4.130248233910096e0 4.182200361171122e0
      4.234805965747333e0 4.288073267371479e0 4.342010589167799e0 4.396626358952572e0
      4.451929110550930e0 4.507927485130331e0 4.564630232550742e0 4.622046212731792e0
      4.680184397037217e0 4.739053869676579e0 4.798663829124758e0 4.859023589559204e0
      4.920142582315270e0 4.982030357359940e0 5.044696584783958e0 5.108151056312863e0
      5.172403686836939e0 5.237464515960413e0 5.303343709570219e0 5.370051561424373e0
      5.437598494760453e0 5.505995063924230e0 5.575251956018769e0 5.645379992574384e0
      5.716390131239444e0 5.788293467492595e0 5.861101236376427e0 5.934824814252936e0
      6.009475720581178e0 6.085065619717123e0 6.161606322736310e0 6.239109789279323e0
      6.317588129420465e0 6.397053605560075e0 6.477518634340449e0 6.558995788586051e0
      6.641497799268013e0 6.725037557493330e0 6.809628116519213e0 6.895282693792587e0
      6.982014673015427e0 7.069837606235957e0 7.158765215966145e0 7.248811397325962e0
      7.339990220214420e0 7.432315931508112e0 7.525802957287279e0 7.620465905089875e0
      7.716319566194113e0 7.813378917929529e0 7.911659126017313e0 8.011175546939949e0
      8.111943730340641e0 8.213979421453095e0 8.317298563561604e0 8.421917300492346e0
      8.527851979135827e0 8.635119152001085e0 8.743735579802143e0 8.853718234076799e0
      8.965084299838558e0 9.077851178261790e0 9.192036489400639e0 9.307658074942317e0
      9.424734000994768e0 9.543282560909642e0 9.663322278140637e0 9.784871909137754e0
      9.907950446278168e0 1.003257712083368e1 1.015877140597576e1 1.028655301981821e1
      1.041594192849816e1 1.054695834929584e1 1.067962275379354e1 1.081395587107438e1
      1.094997869096126e1 1.108771246729649e1 1.122717872126288e1 1.136839924474632e1
      1.151139610374093e1 1.165619164179690e1 1.180280848351158e1 1.195126953806483e1
      1.210159800279843e1 1.225381736684086e1 1.240795141477747e1 1.256402423036678e1
      1.272206020030382e1 1.288208401803037e1 1.304412068759353e1 1.320819552755263e1
      1.337433417493516e1 1.354256258924285e1 1.371290705650764e1 1.388539419339913e1
      1.406005095138342e1 1.423690462093424e1 1.441598283579731e1 1.459731357730799e1
      1.478092517876360e1 1.496684632985043e1 1.515510608112657e1 1.534573384856121e1
      1.553875941813080e1 1.573421295047332e1 1.593212498560089e1 1.613252644767158e1
      1.633544864982164e1 1.654092329905794e1 1.674898250121247e1 1.695965876595892e1
      1.717298501189222e1 1.738899457167237e1 1.760772119723249e1 1.782919906505287e1
      1.805346278150098e1 1.828054738823872e1 1.851048836769797e1 1.874332164862452e1
      1.897908361169226e1 1.921781109518760e1 1.945954140076547e1 1.970431229927798e1
      1.995216203667597e1 2.020312933998516e1 2.045725342335735e1 2.071457399419752e1
      2.097513125936844e1 2.123896593147284e1 2.150611923521504e1 2.177663291384232e1
      2.205054923566725e1 2.232791100067249e1 2.260876154719803e1 2.289314475871320e1
      2.318110507067342e1 2.347268747746323e1 2.376793753942698e1 2.406690138998747e1
      2.436962574285463e1 2.467615789932456e1 2.498654575567024e1 2.530083781062581e1
      2.561908317296419e1 2.594133156917079e1 2.626763335121316e1 2.659803950440852e1
      2.693260165539063e1 2.727137208017615e1 2.761440371233324e1 2.796175015125237e1
      2.831346567052120e1 2.866960522640530e1 2.903022446643473e1 2.939537973809950e1
      2.976512809765376e1 3.013952731903085e1 3.051863590287095e1 3.090251308566144e1
      3.129121884899324e1 3.168481392893272e1 3.208335982551179e1 3.248691881233777e1
      3.289555394632325e1 3.330932907753938e1 3.372830885919229e1 3.415255875772516e1
      3.458214506304791e1 3.501713489889463e1 3.545759623331220e1 3.590359788928034e1
      3.635520955546505e1 3.681250179710811e1 3.727554606705253e1 3.774441471690761e1
      3.821918100835387e1 3.869991912459016e1 3.918670418192532e1 3.967961224151482e1
      4.017872032124585e1 4.068410640777138e1 4.119584946869552e1 4.171402946491282e1
      4.223872736310179e1 4.277002514837661e1 4.330800583709722e1 4.385275348984062e1
      4.440435322453602e1 4.496289122976402e1 4.552845477822440e1 4.610113224037230e1
      4.668101309822617e1 4.726818795934998e1 4.786274857101023e1 4.846478783451222e1
      4.907439981971580e1 4.969167977973378e1 5.031672416581593e1 5.094963064241908e1
      5.159049810246794e1 5.223942668280706e1 5.289651777984725e1 5.356187406540942e1
      5.423559950276669e1 5.491779936288946e1 5.560858024089390e1 5.630805007269743e1
      5.701631815188453e1 5.773349514678335e1 5.845969311775858e1 5.919502553472071e1
      5.993960729485578e1 6.069355474057884e1 6.145698567771201e1 6.223001939389253e1
      6.301277667721141e1 6.380537983508648e1 6.460795271337396e1 6.542062071571867e1
      6.624351082314952e1 6.707675161392007e1 6.792047328359889e1 6.877480766541365e1
      6.963988825084946e1 7.051585021050791e1 7.140283041522750e1 7.230096745746952e1
      7.321040167297436e1 7.413127516268819e1 7.506373181496745e1 7.600791732806127e1
      7.696397923287677e1 7.793206691603199e1 7.891233164319672e1 7.990492658272908e1
      8.091000682960797e1 8.192772942966654e1 8.295825340413188e1 8.400173977447137e1
      8.505835158755348e1 8.612825394112384e1 8.721161400960167e1 8.830860107020206e1
      8.941938652938473e1 9.054414394963779e1 9.168304907659662e1 9.283627986650414e1
      9.400401651401785e1 9.518644148036431e1 9.638373952185047e1 9.759609771873128e1