<UPF version="2.0.1">
  <PP_INFO>
Generated using "atomic" code by A. Dal Corso  v.6.3
Author: Lorenzo Paulatto, modified by ADC
Generation date:  6Sep2018
Pseudopotential type: PAW
Element:  N
Functional:  SLA  PW   PSX  PSC
    Suggested minimum cutoff for wavefunctions:  39. Ry
    Suggested minimum cutoff for charge density: 263. Ry
    The Pseudo was generated with a Scalar-Relativistic Calculation
    L component and cutoff radius for Local Potential:  2   1.1000
    Pseudopotential contains additional information for GIPAW reconstruction.
    Valence configuration:
    nl pn  l   occ       Rcut    Rcut US       E pseu
    2S  1  0  2.00      1.000      1.300    -1.356475
    2P  2  1  3.00      1.000      1.450    -0.517147
    Generation configuration:
    2S  1  0  2.00      1.000      1.300    -1.356467
    2S  1  0  0.00      1.000      1.300     0.050000
    2P  2  1  3.00      1.000      1.450    -0.517143
    2P  2  1  0.00      1.000      1.450     0.050000
    3D  3  2 -2.00      1.100      1.100     0.150000
    Pseudization used: troullier-martins

    <PP_INPUTFILE>
 &amp;input
   title='N',
   zed=7.,
   rel=1,
   config='[He] 2s2 2p3 3d-2',
   iswitch=3,
   dft='PBESOL'
 /
 &amp;inputp
   lpaw = .true.,
   use_xsd=.FALSE.,
   pseudotype=3,
   file_pseudopw='N.pbesol-n-kjpaw_psl.0.1.UPF',
   author='Lorenzo Paulatto, modified by ADC',
   which_augfun='PSQ',
   rmatch_augfun=1.0,
   lloc=2,
   nlcc=.true.,
   new_core_ps=.true.,
   rcore=0.8,
   tm=.true.
 /
5
2S  1  0  2.00  0.00  1.00  1.30  0.0
2S  1  0  0.00  0.05  1.00  1.30  0.0
2P  2  1  3.00  0.00  1.00  1.45  0.0
2P  2  1  0.00  0.05  1.00  1.45  0.0
3D  3  2 -2.00  0.15  1.10  1.10  0.0
</PP_INPUTFILE>
  </PP_INFO>
  <!--
 END OF HUMAN READABLE SECTION 
-->
  <PP_HEADER generated="Generated using &quot;atomic&quot; code by A. Dal Corso  v.6.3" author="Lorenzo Paulatto, modified by ADC" date=" 6Sep2018" comment="" element=" N" pseudo_type="PAW" relativistic="scalar" is_ultrasoft="true" is_paw="true" is_coulomb="false" has_so="false" has_wfc="true" has_gipaw="true" paw_as_gipaw="true" core_correction="true" functional=" SLA  PW   PSX  PSC" z_valence="5.000000000000e0" total_psenergy="-2.716952524736e1" wfc_cutoff="3.859155158206e1" rho_cutoff="2.634639444172e2" l_max="1" l_max_rho="2" l_local="2" mesh_size="1085" number_of_wfc="2" number_of_proj="4"/>
  <PP_MESH dx="1.250000000000e-2" mesh="1085" xmin="-7.000000000000e0" rmax="1.000000000000e2" zmesh="7.000000000000e0">
    <PP_R>
      1.302688522220738e-4 1.319074326670032e-4 1.335666239166546e-4 1.352466852230363e-4
      1.369478790991457e-4 1.386704713599870e-4 1.404147311641055e-4 1.421809310556445e-4
      1.439693470069300e-4 1.457802584615935e-4 1.476139483782339e-4 1.494707032746312e-4
      1.513508132725157e-4 1.532545721428995e-4 1.551822773519797e-4 1.571342301076169e-4
      1.591107354064005e-4 1.611121020813046e-4 1.631386428499439e-4 1.651906743634368e-4
      1.672685172558821e-4 1.693724961944590e-4 1.715029399301573e-4 1.736601813491449e-4
      1.758445575247830e-4 1.780564097702928e-4 1.802960836920878e-4 1.825639292437749e-4
      1.848603007808354e-4 1.871855571159943e-4 1.895400615752845e-4 1.919241820548181e-4
      1.943382910782705e-4 1.967827658550882e-4 1.992579883394284e-4 2.017643452898402e-4
      2.043022283296963e-4 2.068720340083851e-4 2.094741638632719e-4 2.121090244824410e-4
      2.147770275682246e-4 2.174785900015331e-4 2.202141339069929e-4 2.229840867189046e-4
      2.257888812480310e-4 2.286289557492235e-4 2.315047539899009e-4 2.344167253193894e-4
      2.373653247391335e-4 2.403510129737916e-4 2.433742565432249e-4 2.464355278353918e-4
      2.495353051801600e-4 2.526740729240458e-4 2.558523215058957e-4 2.590705475335164e-4
      2.623292538612724e-4 2.656289496686573e-4 2.689701505398539e-4 2.723533785442966e-4
      2.757791623182442e-4 2.792480371473810e-4 2.827605450504566e-4 2.863172348639770e-4
      2.899186623279620e-4 2.935653901727798e-4 2.972579882070756e-4 3.009970334068049e-4
      3.047831100053869e-4 3.086168095849935e-4 3.124987311689836e-4 3.164294813155024e-4
      3.204096742122576e-4 3.244399317724866e-4 3.285208837321337e-4 3.326531677482448e-4
      3.368374294986047e-4 3.410743227826248e-4 3.453645096235005e-4 3.497086603716547e-4
      3.541074538094798e-4 3.585615772573997e-4 3.630717266812654e-4 3.676386068011000e-4
      3.722629312012141e-4 3.769454224417031e-4 3.816868121713501e-4 3.864878412419468e-4
      3.913492598240525e-4 3.962718275242126e-4 4.012563135036447e-4 4.063034965984240e-4
      4.114141654411775e-4 4.165891185843097e-4 4.218291646247780e-4 4.271351223304372e-4
      4.325078207679736e-4 4.379480994324489e-4 4.434568083784726e-4 4.490348083530257e-4
      4.546829709299524e-4 4.604021786461466e-4 4.661933251394497e-4 4.720573152882831e-4
      4.779950653530388e-4 4.840075031192445e-4 4.900955680425335e-4 4.962602113954362e-4
      5.025023964160183e-4 5.088230984583900e-4 5.152233051451044e-4 5.217040165214777e-4
      5.282662452118475e-4 5.349110165777972e-4 5.416393688783725e-4 5.484523534323091e-4
      5.553510347823044e-4 5.623364908613548e-4 5.694098131611843e-4 5.765721069027940e-4
      5.838244912091524e-4 5.911680992800624e-4 5.986040785692256e-4 6.061335909635343e-4
      6.137578129646200e-4 6.214779358726812e-4 6.292951659726294e-4 6.372107247225717e-4
      6.452258489446666e-4 6.533417910183818e-4 6.615598190761780e-4 6.698812172016587e-4
      6.783072856302111e-4 6.868393409521693e-4 6.954787163185376e-4 7.042267616492931e-4
      7.130848438443167e-4 7.220543469969734e-4 7.311366726103788e-4 7.403332398163892e-4
      7.496454855973406e-4 7.590748650105823e-4 7.686228514158315e-4 7.782909367053893e-4
      7.880806315372531e-4 7.979934655711570e-4 8.080309877075869e-4 8.181947663297979e-4
      8.284863895488773e-4 8.389074654518932e-4 8.494596223531563e-4 8.601445090486513e-4
      8.709637950736626e-4 8.819191709636430e-4 8.930123485183659e-4 9.042450610693924e-4
      9.156190637509118e-4 9.271361337739839e-4 9.387980707042304e-4 9.506066967430247e-4
      9.625638570122096e-4 9.746714198424039e-4 9.869312770649334e-4 9.993453443074300e-4
      1.011915561293161e-3 1.024643892144100e-3 1.037532325687842e-3 1.050582875768348e-3
      1.063797581560620e-3 1.077178507889325e-3 1.090727745551423e-3 1.104447411642867e-3
      1.118339649889396e-3 1.132406630981499e-3 1.146650552913594e-3 1.161073641327459e-3
      1.175678149860004e-3 1.190466360495401e-3 1.205440583921647e-3 1.220603159891621e-3
      1.235956457588662e-3 1.251502875996775e-3 1.267244844275466e-3 1.283184822139303e-3
      1.299325300242260e-3 1.315668800566877e-3 1.332217876818332e-3 1.348975114823459e-3
      1.365943132934786e-3 1.383124582439670e-3 1.400522147974547e-3 1.418138547944430e-3
      1.435976534947655e-3 1.454038896205981e-3 1.472328454000107e-3 1.490848066110644e-3
      1.509600626264665e-3 1.528589064587847e-3 1.547816348062307e-3 1.567285480990213e-3
      1.586999505463187e-3 1.606961501837667e-3 1.627174589216196e-3 1.647641925934803e-3
      1.668366710056493e-3 1.689352179870945e-3 1.710601614400517e-3 1.732118333912586e-3
      1.753905700438348e-3 1.775967118298156e-3 1.798306034633428e-3 1.820925939945295e-3
      1.843830368639982e-3 1.867022899581068e-3 1.890507156648706e-3 1.914286809305832e-3
      1.938365573171562e-3 1.962747210601735e-3 1.987435531276803e-3 2.012434392797105e-3
      2.037747701285608e-3 2.063379411998269e-3 2.089333529942032e-3 2.115614110500629e-3
      2.142225260068245e-3 2.169171136691135e-3 2.196455950717348e-3 2.224083965454585e-3
      2.252059497836356e-3 2.280386919096517e-3 2.309070655452268e-3 2.338115188795776e-3
      2.367525057394465e-3 2.397304856600137e-3 2.427459239567012e-3 2.457992917978769e-3
      2.488910662784788e-3 2.520217304945595e-3 2.551917736187719e-3 2.584016909768044e-3
      2.616519841247740e-3 2.649431609275984e-3 2.682757356383487e-3 2.716502289786037e-3
      2.750671682198133e-3 2.785270872656857e-3 2.820305267356111e-3 2.855780340491347e-3
      2.891701635114913e-3 2.928074764002180e-3 2.964905410528535e-3 3.002199329557433e-3
      3.039962348339596e-3 3.078200367423539e-3 3.116919361577539e-3 3.156125380723207e-3
      3.195824550880800e-3 3.236023075126424e-3 3.276727234561276e-3 3.317943389293082e-3
      3.359677979429873e-3 3.401937526086268e-3 3.444728632402411e-3 3.488057984575720e-3
      3.531932352905629e-3 3.576358592851450e-3 3.621343646103564e-3 3.666894541668062e-3
      3.713018396965050e-3 3.759722418940759e-3 3.807013905193641e-3 3.854900245114641e-3
      3.903388921041795e-3 3.952487509429369e-3 4.002203682031690e-3 4.052545207101871e-3
      4.103519950605633e-3 4.155135877450354e-3 4.207401052729613e-3 4.260323642983387e-3
      4.313911917474072e-3 4.368174249478585e-3 4.423119117596698e-3 4.478755107075841e-3
      4.535090911152564e-3 4.592135332410868e-3 4.649897284157634e-3 4.708385791815338e-3
      4.767609994332297e-3 4.827579145610651e-3 4.888302615952290e-3 4.949789893523003e-3
      5.012050585835005e-3 5.075094421248138e-3 5.138931250489954e-3 5.203571048194890e-3
      5.269023914462858e-3 5.335300076437375e-3 5.402409889903583e-3 5.470363840906379e-3
      5.539172547388858e-3 5.608846760851403e-3 5.679397368031616e-3 5.750835392605408e-3
      5.823171996909461e-3 5.896418483685364e-3 5.970586297845703e-3 6.045687028262331e-3
      6.121732409577170e-3 6.198734324035769e-3 6.276704803343918e-3 6.355656030547646e-3
      6.435600341936832e-3 6.516550228972773e-3 6.598518340240017e-3 6.681517483422711e-3
      6.765560627305847e-3 6.850660903801639e-3 6.936831610001425e-3 7.024086210253369e-3
      7.112438338266278e-3 7.201901799239911e-3 7.292490572022059e-3 7.384218811292773e-3
      7.477100849776054e-3 7.571151200479401e-3 7.666384558961448e-3 7.762815805628214e-3
      7.860460008058180e-3 7.959332423356629e-3 8.059448500539622e-3 8.160823882947899e-3
      8.263474410691211e-3 8.367416123123363e-3 8.472665261348389e-3 8.579238270758278e-3
      8.687151803602566e-3 8.796422721590320e-3 8.907068098524778e-3 9.019105222971197e-3
      9.132551600958225e-3 9.247424958713223e-3 9.363743245432053e-3 9.481524636083662e-3
      9.600787534249966e-3 9.721550575001457e-3 9.843832627808940e-3 9.967652799491953e-3
      1.009303043720423e-2 1.021998513145675e-2 1.034853671917878e-2 1.047870528681745e-2
      1.061051117347627e-2 1.074397497409320e-2 1.087911754265862e-2 1.101595999547382e-2
      1.115452371445045e-2 1.129483035045153e-2 1.143690182667437e-2 1.158076034207618e-2
      1.172642837484268e-2 1.187392868590037e-2 1.202328432247292e-2 1.217451862168241e-2
      1.232765521419579e-2 1.248271802791720e-2 1.263973129172676e-2 1.279871953926639e-2
      1.295970761277322e-2 1.312272066696127e-2 1.328778417295193e-2 1.345492392225381e-2
      1.362416603079281e-2 1.379553694299269e-2 1.396906343590715e-2 1.414477262340376e-2
      1.432269196040053e-2 1.450284924715587e-2 1.468527263361235e-2 1.486999062379524e-2
      1.505703208026633e-2 1.524642622863374e-2 1.543820266211847e-2 1.563239134617842e-2
      1.582902262319057e-2 1.602812721719196e-2 1.622973623868054e-2 1.643388118947606e-2
      1.664059396764243e-2 1.684990687247180e-2 1.706185260953137e-2 1.727646429577381e-2
      1.749377546471170e-2 1.771382007165733e-2 1.793663249902819e-2 1.816224756171937e-2
      1.839070051254346e-2 1.862202704773881e-2 1.885626331254718e-2 1.909344590686150e-2
      1.933361189094467e-2 1.957679879122035e-2 1.982304460613647e-2 2.007238781210260e-2
      2.032486736950196e-2 2.058052272877904e-2 2.083939383660391e-2 2.110152114211384e-2
      2.136694560323360e-2 2.163570869307524e-2 2.190785240641835e-2 2.218341926627186e-2
      2.246245233051824e-2 2.274499519864148e-2 2.303109201853956e-2 2.332078749342263e-2
      2.361412688879808e-2 2.391115603954322e-2 2.421192135706717e-2 2.451646983656270e-2
      2.482484906434931e-2 2.513710722530878e-2 2.545329311041407e-2 2.577345612435298e-2
      2.609764629324782e-2 2.642591427247204e-2 2.675831135456530e-2 2.709488947724790e-2
      2.743570123153632e-2 2.778079986996052e-2 2.813023931488487e-2 2.848407416693360e-2
      2.884235971352221e-2 2.920515193749630e-2 2.957250752587897e-2 2.994448387872826e-2
      3.032113911810615e-2 3.070253209716010e-2 3.108872240931900e-2 3.147977039760486e-2
      3.187573716406140e-2 3.227668457930156e-2 3.268267529217464e-2 3.309377273955556e-2
      3.351004115625683e-2 3.393154558506545e-2 3.435835188690603e-2 3.479052675113154e-2
      3.522813770594380e-2 3.567125312894482e-2 3.611994225782093e-2 3.657427520116144e-2
      3.703432294941309e-2 3.750015738597249e-2 3.797185129841811e-2 3.844947838988340e-2
      3.893311329057324e-2 3.942283156942474e-2 3.991870974591535e-2 4.042082530201901e-2
      4.092925669431287e-2 4.144408336623648e-2 4.196538576050470e-2 4.249324533167725e-2
      4.302774455888604e-2 4.356896695872275e-2 4.411699709828856e-2 4.467192060840770e-2
      4.523382419700762e-2 4.580279566266727e-2 4.637892390833568e-2 4.696229895522346e-2
      4.755301195686852e-2 4.815115521337921e-2 4.875682218585627e-2 4.937010751099636e-2
      4.999110701587934e-2 5.061991773294126e-2 5.125663791513597e-2 5.190136705128735e-2
      5.255420588163462e-2 5.321525641357328e-2 5.388462193759387e-2 5.456240704342131e-2
      5.524871763635736e-2 5.594366095382842e-2 5.664734558214185e-2 5.735988147345240e-2
      5.808137996294276e-2 5.881195378621983e-2 5.955171709692976e-2 6.030078548459508e-2
      6.105927599267526e-2 6.182730713685536e-2 6.260499892356421e-2 6.339247286872569e-2
      6.418985201674596e-2 6.499726095973910e-2 6.581482585699515e-2 6.664267445469267e-2
      6.748093610585925e-2 6.832974179058344e-2 6.918922413648038e-2 7.005951743941520e-2
      7.094075768448713e-2 7.183308256727727e-2 7.273663151536418e-2 7.365154571010919e-2
      7.457796810871663e-2 7.551604346657110e-2 7.646591835985575e-2 7.742774120845532e-2
      7.840166229914667e-2 7.938783380908166e-2 8.038640982956515e-2 8.139754639013185e-2
      8.242140148292666e-2 8.345813508739086e-2 8.450790919525934e-2 8.557088783587226e-2
      8.664723710180478e-2 8.773712517481970e-2 8.884072235214578e-2 8.995820107308719e-2
      9.108973594596769e-2 9.223550377541315e-2 9.339568358997820e-2 9.457045667011919e-2
      9.576000657651996e-2 9.696451917877356e-2 9.818418268442461e-2 9.941918766837745e-2
      1.006697271026734e-1 1.019359963866433e-1 1.032181933774390e-1 1.045165184209488e-1
      1.058311743831026e-1 1.071623666815689e-1 1.085103033178527e-1 1.098751949097959e-1
      1.112572547244864e-1 1.126566987115824e-1 1.140737455370539e-1 1.155086166173504e-1
      1.169615361539975e-1 1.184327311686286e-1 1.199224315384582e-1 1.214308700321998e-1
      1.229582823464369e-1 1.245049071424512e-1 1.260709860835136e-1 1.276567638726451e-1
      1.292624882908514e-1 1.308884102358397e-1 1.325347837612219e-1 1.342018661162108e-1
      1.358899177858163e-1 1.375992025315460e-1 1.393299874326190e-1 1.410825429276974e-1
      1.428571428571428e-1 1.446540645058050e-1 1.464735886463471e-1 1.483159995831179e-1
      1.501815851965750e-1 1.520706369882656e-1 1.539834501263759e-1 1.559203234918503e-1
      1.578815597250926e-1 1.598674652732545e-1 1.618783504381180e-1 1.639145294245818e-1
      1.659763203897548e-1 1.680640454926702e-1 1.701780309446227e-1 1.723186070601401e-1
      1.744861083085957e-1 1.766808733664693e-1 1.789032451702664e-1 1.811535709701029e-1
      1.834322023839631e-1 1.857394954526416e-1 1.880758106953746e-1 1.904415131661719e-1
      1.928369725108577e-1 1.952625630248281e-1 1.977186637115360e-1 2.002056583417105e-1
      2.027239355133226e-1 2.052738887123036e-1 2.078559163740287e-1 2.104704219455737e-1
      2.131178139487530e-1 2.157985060439533e-1 2.185129170947686e-1 2.212614712334476e-1
      2.240445979271670e-1 2.268627320451349e-1 2.297163139265405e-1 2.326057894493587e-1
      2.355316101000183e-1 2.384942330439490e-1 2.414941211970131e-1 2.445317432978379e-1
      2.476075739810566e-1 2.507220938514712e-1 2.538757895591484e-1 2.570691538754585e-1
      2.603026857700729e-1 2.635768904889288e-1 2.668922796331747e-1 2.702493712391100e-1
      2.736486898591281e-1 2.770907666436793e-1 2.805761394242641e-1 2.841053527974703e-1
      2.876789582100682e-1 2.912975140451737e-1 2.949615857094982e-1 2.986717457216939e-1
      3.024285738018107e-1 3.062326569618800e-1 3.100845895976347e-1 3.139849735813862e-1
      3.179344183560670e-1 3.219335410304583e-1 3.259829664756149e-1 3.300833274225007e-1
      3.342352645608560e-1 3.384394266393059e-1 3.426964705667283e-1 3.470070615148984e-1
      3.513718730224215e-1 3.557915870999761e-1 3.602668943368785e-1 3.647984940089896e-1
      3.693870941879781e-1 3.740334118519574e-1 3.787381729975154e-1 3.835021127531531e-1
      3.883259754941493e-1 3.932105149588724e-1 3.981564943665502e-1 4.031646865365285e-1
      4.082358740090236e-1 4.133708491673945e-1 4.185704143619579e-1 4.238353820353526e-1
      4.291665748494903e-1 4.345648258140951e-1 4.400309784168615e-1 4.455658867552565e-1
      4.511704156699670e-1 4.568454408800392e-1 4.625918491197091e-1 4.684105382769533e-1
      4.743024175337930e-1 4.802684075083472e-1 4.863094403986882e-1 4.924264601284968e-1
      4.986204224945488e-1 5.048922953160676e-1 5.112430585859401e-1 5.176737046238486e-1
      5.241852382313209e-1 5.307786768487292e-1 5.374550507142734e-1 5.442154030249517e-1
      5.510607900995676e-1 5.579922815437792e-1 5.650109604172253e-1 5.721179234027613e-1
      5.793142809778109e-1 5.866011575878874e-1 5.939796918222873e-1 6.014510365919943e-1
      6.090163593098318e-1 6.166768420728635e-1 6.244336818471082e-1 6.322880906545626e-1
      6.402412957625806e-1 6.482945398756438e-1 6.564490813295272e-1 6.647061942879241e-1
      6.730671689415350e-1 6.815333117096575e-1 6.901059454443263e-1 6.987864096370009e-1
      7.075760606278733e-1 7.164762718177947e-1 7.254884338828687e-1 7.346139549917559e-1
      7.438542610256929e-1 7.532107958012986e-1 7.626850212961686e-1 7.722784178773096e-1
      7.819924845324579e-1 7.918287391042892e-1 8.017887185275935e-1 8.118739790694212e-1
      8.220860965722473e-1 8.324266667002114e-1 8.428973051884311e-1 8.534996480954746e-1
      8.642353520589928e-1 8.751060945545694e-1 8.861135741578387e-1 8.972595108098808e-1
      9.085456460859756e-1 9.199737434677234e-1 9.315455886185875e-1 9.432629896629193e-1
      9.551277774684674e-1 9.671418059324676e-1 9.793069522713118e-1 9.916251173138622e-1
      1.004098225798472e0 1.016728226673714e0 1.029517093402924e0 1.042466824272548e0
      1.055579442704379e0 1.068856997571727e0 1.082301563519550e0 1.095915241288633e0
      1.109700158043825e0 1.123658467706413e0 1.137792351290683e0 1.152104017244696e0
      1.166595701795378e0 1.181269669297925e0 1.196128212589609e0 1.211173653348055e0
      1.226408342453985e0 1.241834660358572e0 1.257455017455373e0 1.273271854456963e0
      1.289287642776304e0 1.305504884912904e0 1.321926114843841e0 1.338553898419705e0
      1.355390833765504e0 1.372439551686645e0 1.389702716079984e0 1.407183024350083e0
      1.424883207830675e0 1.442806032211436e0 1.460954297970144e0 1.479330840810242e0
      1.497938532103939e0 1.516780279340859e0 1.535859026582336e0 1.555177754921450e0
      1.574739482948801e0 1.594547267224195e0 1.614604202754227e0 1.634913423475874e0
      1.655478102746200e0 1.676301453838173e0 1.697386730442771e0 1.718737227177363e0
      1.740356280100496e0 1.762247267233181e0 1.784413609086688e0 1.806858769197032e0
      1.829586254666149e0 1.852599616709876e0 1.875902451212861e0 1.899498399290398e0
      1.923391147857387e0 1.947584430204395e0 1.972082026581013e0 1.996887764786521e0
      2.022005520767972e0 2.047439219225850e0 2.073192834227275e0 2.099270389826992e0
      2.125675960696122e0 2.152413672758827e0 2.179487703837026e0 2.206902284303147e0
      2.234661697741168e0 2.262770281615919e0 2.291232427950811e0 2.320052584014122e0
      2.349235253013866e0 2.378784994801449e0 2.408706426584150e0 2.439004223646552e0
      2.469683120081095e0 2.500747909527756e0 2.532203445923092e0 2.564054644258665e0
      2.596306481349010e0 2.628963996609296e0 2.662032292842717e0 2.695516537037840e0
      2.729421961175952e0 2.763753863048545e0 2.798517607085146e0 2.833718625191476e0
      2.869362417598238e0 2.905454553720518e0 2.942000673028005e0 2.979006485926205e0
      3.016477774648661e0 3.054420394160478e0 3.092840273073154e0 3.131743414570924e0
      3.171135897348809e0 3.211023876562375e0 3.251413584789533e0 3.292311333004371e0
      3.333723511563246e0 3.375656591203321e0 3.418117124053593e0 3.461111744658711e0
      3.504647171015625e0 3.548730205623264e0 3.593367736545485e0 3.638566738487299e0
      3.684334273884723e0 3.730677494008285e0 3.777603640080400e0 3.825120044406880e0
      3.873234131522558e0 3.921953419351443e0 3.971285520381385e0 4.021238142853522e0
      4.071819091966760e0 4.123036271097290e0 4.174897683033563e0 4.227411431226711e0
      4.280585721056718e0 4.334428861114565e0 4.388949264500419e0 4.444155450138237e0
      4.500056044106852e0 4.556659780987785e0 4.613975505230103e0 4.672012172532311e0
      4.730778851241759e0 4.790284723771566e0 4.850539088035364e0 4.911551358900176e0
      4.973331069657435e0 5.035887873512649e0 5.099231545093701e0 5.163371981978133e0
      5.228319206239719e0 5.294083366014370e0 5.360674737085858e0 5.428103724491400e0
      5.496380864147448e0 5.565516824496003e0 5.635522408171508e0 5.706408553688847e0
      5.778186337152491e0 5.850866973987115e0 5.924461820690117e0 5.998982376606001e0
      6.074440285723255e0 6.150847338493709e0 6.228215473674787e0 6.306556780195041e0
      6.385883499042980e0 6.466208025179824e0 6.547542909476215e0 6.629900860673282e0
      6.713294747368479e0 6.797737600026243e0 6.883242613014117e0 6.969823146664352e0
      7.057492729361456e0 7.146265059656116e0 7.236154008405523e0 7.327173620940814e0
      7.419338119261641e0 7.512661904258350e0 7.607159557962242e0 7.702845845823938e0
      7.799735719020605e0 7.897844316792069e0 7.997186968806308e0 8.097779197554839e0
      8.199636720778035e0 8.302775453921141e0 8.407211512621066e0 8.512961215224427e0
      8.620041085337437e0 8.728467854407624e0 8.838258464338269e0 8.949430070135559e0
      9.062000042589050e0 9.175985970985993e0 9.291405665859573e0 9.408277161771958e0
      9.526618720132173e0 9.646448832049449e0 9.767786221222604e0 9.890649846865520e0
      1.001505890666969e1 1.014103283980385e1 1.026859132995130e1 1.039775430838568e1
      1.052854195708512e1 1.066097471188584e1 1.079507326567524e1 1.093085857162513e1
      1.106835184646585e1 1.120757457380131e1 1.134854850746591e1 1.149129567492362e1
      1.163583838070973e1 1.178219920991616e1 1.193040103172018e1 1.208046700295800e1
      1.223242057174295e1 1.238628548112927e1 1.254208577282213e1 1.269984579093405e1
      1.285959018578883e1 1.302134391777321e1 1.318513226123684e1 1.335098080844168e1
      1.351891547356059e1 1.368896249672670e1 1.386114844813335e1 1.403550023218572e1
      1.421204509170485e1 1.439081061218416e1 1.457182472609996e1 1.475511571727584e1
      1.494071222530203e1 1.512864325001058e1 1.531893815600637e1 1.551162667725566e1
      1.570673892173194e1 1.590430537612034e1 1.610435691058133e1 1.630692478357415e1
      1.651204064674110e1 1.671973654985313e1 1.693004494581762e1 1.714299869574937e1
      1.735863107410499e1 1.757697577388236e1 1.779806691188507e1 1.802193903405317e1
      1.824862712086129e1 1.847816659278414e1 1.871059331583123e1 1.894594360715095e1
      1.918425424070508e1 1.942556245301502e1 1.966990594897982e1 1.991732290776788e1
      2.016785198878243e1 2.042153233770200e1 2.067840359259731e1 2.093850589012445e1
      2.120187987179666e1 2.146856669033443e1 2.173860801609566e1 2.201204604358699e1
      2.228892349805645e1 2.256928364216964e1 2.285317028276953e1 2.314062777772119e1
      2.343170104284314e1 2.372643555892516e1 2.402487737883507e1 2.432707313471445e1
      2.463307004526491e1 2.494291592312635e1 2.525665918234750e1 2.557434884595096e1
      2.589603455359305e1 2.622176656932000e1 2.655159578942205e1 2.688557375038579e1
      2.722375263694714e1 2.756618529024523e1 2.791292521607871e1 2.826402659326654e1
      2.861954428211312e1 2.897953383298070e1 2.934405149496905e1 2.971315422470438e1
      3.008689969523925e1 3.046534630506372e1 3.084855318723059e1 3.123658021859489e1
      3.162948802916960e1 3.202733801159961e1 3.243019233075402e1 3.283811393343984e1
      3.325116655823747e1 3.366941474545980e1 3.409292384723713e1 3.452176003772811e1
      3.495599032346006e1 3.539568255379862e1 3.584090543154923e1 3.629172852369247e1
      3.674822227225357e1 3.721045800530954e1 3.767850794813418e1 3.815244523448316e1
      3.863234391802186e1 3.911827898389579e1 3.961032636044771e1 4.010856293108136e1
      4.061306654627442e1 4.112391603574333e1 4.164119122076003e1 4.216497292662462e1
      4.269534299529437e1 4.323238429817141e1 4.377618074905208e1 4.432681731723807e1
      4.488438004081346e1 4.544895604008830e1 4.602063353121093e1 4.659950183995262e1
      4.718565141566414e1 4.777917384540929e1 4.838016186827537e1 4.898870938986349e1
      4.960491149696216e1 5.022886447240412e1 5.086066581011131e1 5.150041423032825e1
      5.214820969504699e1 5.280415342362704e1 5.346834790861031e1 5.414089693173651e1
      5.482190558015890e1 5.551148026286412e1 5.620972872729950e1 5.691676007620799e1
      5.763268478467644e1 5.835761471739723e1 5.909166314614698e1 5.983494476748633e1
      6.058757572068066e1 6.134967360584771e1 6.212135750233267e1 6.290274798731414e1
      6.369396715464537e1 6.449513863393079e1 6.530638760984414e1 6.612784084168851e1
      6.695962668320243e1 6.780187510261614e1 6.865471770295848e1 6.951828774262103e1
      7.039272015617954e1 7.127815157547744e1 7.217472035097565e1 7.308256657336918e1
      7.400183209547743e1 7.493266055440863e1 7.587519739400303e1 7.682958988755964e1
      7.779598716084706e1 7.877454021540554e1 7.976540195214087e1 8.076872719521502e1
      8.178467271623884e1 8.281339725876663e1 8.385506156310127e1 8.490982839140974e1
      8.597786255315460e1 8.705933093084687e1 8.815440250612053e1 8.926324838613729e1
      9.038604183032202e1 9.152295827743442e1 9.267417537298272e1 9.383987299697997e1
      9.502023329205169e1 9.621544069189564e1 9.742568195009937e1 9.865114616932205e1
      9.989202483084084e1
      </PP_R>
    <PP_RAB>
      1.628360652775922e-6 1.648842908337540e-6 1.669582798958182e-6 1.690583565287954e-6
      1.711848488739321e-6 1.733380891999837e-6 1.755184139551320e-6 1.777261638195556e-6
      1.799616837586625e-6 1.822253230769919e-6 1.845174354727923e-6 1.868383790932890e-6
      1.891885165906447e-6 1.915682151786244e-6 1.939778466899747e-6 1.964177876345211e-6
      1.988884192580007e-6 2.013901276016308e-6 2.039233035624299e-6 2.064883429542960e-6
      2.090856465698526e-6 2.117156202430738e-6 2.143786749126966e-6 2.170752266864312e-6
      2.198056969059788e-6 2.225705122128660e-6 2.253701046151098e-6 2.282049115547187e-6
      2.310753759760443e-6 2.339819463949929e-6 2.369250769691056e-6 2.399052275685227e-6
      2.429228638478382e-6 2.459784573188602e-6 2.490724854242855e-6 2.522054316123003e-6
      2.553777854121205e-6 2.585900425104814e-6 2.618427048290898e-6 2.651362806030512e-6
      2.684712844602808e-6 2.718482375019164e-6 2.752676673837412e-6 2.787301083986308e-6
      2.822361015600388e-6 2.857861946865294e-6 2.893809424873762e-6 2.930209066492368e-6
      2.967066559239168e-6 3.004387662172395e-6 3.042178206790310e-6 3.080444097942397e-6
      3.119191314751999e-6 3.158425911550573e-6 3.198154018823696e-6 3.238381844168956e-6
      3.279115673265906e-6 3.320361870858217e-6 3.362126881748174e-6 3.404417231803708e-6
      3.447239528978052e-6 3.490600464342263e-6 3.534506813130708e-6 3.578965435799713e-6
      3.623983279099526e-6 3.669567377159748e-6 3.715724852588445e-6 3.762462917585061e-6
      3.809788875067337e-6 3.857710119812420e-6 3.906234139612295e-6 3.955368516443780e-6
      4.005120927653220e-6 4.055499147156083e-6 4.106511046651670e-6 4.158164596853061e-6
      4.210467868732559e-6 4.263429034782810e-6 4.317056370293757e-6 4.371358254645685e-6
      4.426343172618497e-6 4.482019715717497e-6 4.538396583515819e-6 4.595482585013751e-6
      4.653286640015176e-6 4.711817780521289e-6 4.771085152141877e-6 4.831098015524335e-6
      4.891865747800657e-6 4.953397844052658e-6 5.015703918795559e-6 5.078793707480300e-6
      5.142677068014721e-6 5.207363982303870e-6 5.272864557809726e-6 5.339189029130466e-6
      5.406347759599671e-6 5.474351242905612e-6 5.543210104730909e-6 5.612935104412822e-6
      5.683537136624405e-6 5.755027233076833e-6 5.827416564243121e-6 5.900716441103540e-6
      5.974938316912986e-6 6.050093788990556e-6 6.126194600531670e-6 6.203252642442952e-6
      6.281279955200231e-6 6.360288730729875e-6 6.440291314313805e-6 6.521300206518472e-6
      6.603328065148093e-6 6.686387707222464e-6 6.770492110979656e-6 6.855654417903864e-6
      6.941887934778806e-6 7.029206135766935e-6 7.117622664514803e-6 7.207151336284926e-6
      7.297806140114405e-6 7.389601241000779e-6 7.482550982115320e-6 7.576669887044178e-6
      7.671972662057750e-6 7.768474198408516e-6 7.866189574657867e-6 7.965134059032146e-6
      8.065323111808333e-6 8.166772387729774e-6 8.269497738452225e-6 8.373515215020733e-6
      8.478841070377639e-6 8.585491761902116e-6 8.693483953981721e-6 8.802834520616166e-6
      8.913560548053960e-6 9.025679337462167e-6 9.139208407629736e-6 9.254165497704864e-6
      9.370568569966757e-6 9.488435812632279e-6 9.607785642697893e-6 9.728636708817369e-6
      9.851007894215664e-6 9.974918319639464e-6 1.010038734634484e-5 1.022743457912247e-5
      1.035607986936097e-5 1.048634331814867e-5 1.061824527941445e-5 1.075180636310814e-5