<UPF version="2.0.1">
  <PP_INFO>
Generated using "atomic" code by A. Dal Corso  v.6.3
Author: ADC
Generation date:  5Sep2018
Pseudopotential type: USPP
Element: Mn
Functional: PBESOL
    Suggested minimum cutoff for wavefunctions:  46. Ry
    Suggested minimum cutoff for charge density: 244. Ry
    The Pseudo was generated with a Scalar-Relativistic Calculation
    Local Potential by smoothing AE potential with Bessel fncs, cutoff radius:   1.9000
    Pseudopotential contains additional information for GIPAW reconstruction.
    Valence configuration:
    nl pn  l   occ       Rcut    Rcut US       E pseu
    3S  1  0  2.00      1.100      1.700    -6.294684
    4S  2  0  2.00      0.800      1.600    -0.376644
    3P  2  1  6.00      1.400      1.900    -4.004345
    3D  3  2  5.00      1.400      1.600    -0.499321
    Generation configuration:
    3S  1  0  2.00      1.100      1.700    -6.294723
    4S  2  0  2.00      0.800      1.600    -0.376649
    3P  2  1  6.00      1.400      1.900    -4.004380
    4P  3  1  0.00      1.400      1.900     0.400000
    3D  3  2  5.00      1.400      1.600    -0.499347
    3D  3  2 -2.00      1.400      1.600    -0.300000
    Pseudization used: troullier-martins

    <PP_INPUTFILE>
 &amp;input
   title='Mn c',
   zed=25.0,
   rel=1,
   config='[Ar] 3d5.0 4s2 4p0',
   iswitch=3,
   dft='PBESOL'
 /
 &amp;inputp
   use_xsd=.FALSE.,
   pseudotype=3,
   file_pseudopw='Mn.pbesol-spn-rrkjus_psl.0.3.1.UPF',
   author='ADC',
   lloc=-1,
   rcloc=1.9,
   which_augfun='PSQ',
   rmatch_augfun=1.3,
   nlcc=.true.,
   new_core_ps=.true.,
   rcore=0.7,
   tm=.true.
 /
6
3S  1  0  2.00  0.00  1.10  1.70  0.0
4S  2  0  2.00  0.00  0.80  1.60  0.0
3P  2  1  6.00  0.00  1.40  1.90  0.0
4P  3  1  0.00  0.40  1.40  1.90  0.0
3D  3  2  5.00  0.00  1.40  1.60  0.0
3D  3  2 -2.00 -0.30  1.40  1.60  0.0
</PP_INPUTFILE>
  </PP_INFO>
  <!--
 END OF HUMAN READABLE SECTION 
-->
  <PP_HEADER generated="Generated using &quot;atomic&quot; code by A. Dal Corso  v.6.3" author="ADC" date=" 5Sep2018" comment="" element="Mn" pseudo_type="USPP" relativistic="scalar" is_ultrasoft="true" is_paw="false" is_coulomb="false" has_so="false" has_wfc="false" has_gipaw="true" paw_as_gipaw="false" core_correction="true" functional="PBESOL" z_valence="1.500000000000e1" total_psenergy="-2.129144936586e2" wfc_cutoff="4.572908976881e1" rho_cutoff="2.441239883117e2" l_max="2" l_max_rho="4" l_local="-1" mesh_size="1187" number_of_wfc="4" number_of_proj="6"/>
  <PP_MESH dx="1.250000000000e-2" mesh="1187" xmin="-7.000000000000e0" rmax="1.000000000000e2" zmesh="2.500000000000e1">
    <PP_R>
      3.647527862218065e-5 3.693408114676089e-5 3.739865469666328e-5 3.786907186245016e-5
      3.834540614776079e-5 3.882773198079636e-5 3.931612472594955e-5 3.981066069558045e-5
      4.031141716194042e-5 4.081847236924618e-5 4.133190554590548e-5 4.185179691689674e-5
      4.237822771630441e-5 4.291128020001188e-5 4.345103765855431e-5 4.399758443013273e-5
      4.455100591379213e-5 4.511138858276530e-5 4.567881999798430e-5 4.625338882176231e-5
      4.683518483164698e-5 4.742429893444852e-5 4.802082318044404e-5 4.862485077776059e-5
      4.923647610693925e-5 4.985579473568199e-5 5.048290343378458e-5 5.111790018825698e-5
      5.176088421863392e-5 5.241195599247840e-5 5.307121724107966e-5 5.373877097534907e-5
      5.441472150191576e-5 5.509917443942469e-5 5.579223673503995e-5 5.649401668115528e-5
      5.720462393231497e-5 5.792416952234783e-5 5.865276588171612e-5 5.939052685508347e-5
      6.013756771910289e-5 6.089400520042927e-5 6.165995749395801e-5 6.243554428129329e-5
      6.322088674944868e-5 6.401610760978257e-5 6.482133111717227e-5 6.563668308942904e-5
      6.646229092695737e-5 6.729828363266165e-5 6.814479183210294e-5 6.900194779390970e-5
      6.986988545044479e-5 7.074874041873283e-5 7.163865002165078e-5 7.253975330938460e-5
      7.345219108115629e-5 7.437610590722405e-5 7.531164215115909e-5 7.625894599240306e-5
      7.721816544910838e-5 7.818945040126668e-5 7.917295261412787e-5 8.016882576191357e-5
      8.117722545182938e-5 8.219830924837835e-5 8.323223669798118e-5 8.427916935390536e-5
      8.533927080150832e-5 8.641270668379818e-5 8.749964472731541e-5 8.860025476834068e-5
      8.971470877943213e-5 9.084318089629628e-5 9.198584744499746e-5 9.314288696950856e-5
      9.431448025960933e-5 9.550081037913493e-5 9.670206269458014e-5 9.791842490406331e-5
      9.915008706665434e-5 1.003972416320719e-4 1.016600834707543e-4 1.029388099043080e-4
      1.042336207363399e-4 1.055447182836769e-4 1.068723074079780e-4 1.082165955477451e-4
      1.095777927507348e-4 1.109561117067795e-4 1.123517677810205e-4 1.137649790475587e-4
      1.151959663235297e-4 1.166449532036067e-4 1.181121660949379e-4 1.195978342525224e-4
      1.211021898150326e-4 1.226254678410857e-4 1.241679063459723e-4 1.257297463388472e-4
      1.273112318603867e-4 1.289126100209210e-4 1.305341310390459e-4 1.321760482807193e-4
      1.338386182988509e-4 1.355221008733885e-4 1.372267590519094e-4 1.389528591907221e-4
      1.407006709964851e-4 1.424704675683492e-4 1.442625254406292e-4 1.460771246260137e-4
      1.479145486593173e-4 1.497750846417832e-4 1.516590232859443e-4 1.535666589610465e-4
      1.554982897390452e-4 1.574542174411793e-4 1.594347476851316e-4 1.614401899327823e-4
      1.634708575385627e-4 1.655270677984175e-4 1.676091419993832e-4 1.697174054697896e-4
      1.718521876300936e-4 1.740138220443508e-4 1.762026464723363e-4 1.784190029223201e-4
      1.806632377045067e-4 1.829357014851469e-4 1.852367493413298e-4 1.875667408164645e-4
      1.899260399764591e-4 1.923150154666074e-4 1.947340405691905e-4 1.971834932618020e-4
      1.996637562764087e-4 2.021752171591526e-4 2.047182683309061e-4 2.072933071485890e-4
      2.099007359672554e-4 2.125409622029630e-4 2.152143983964328e-4 2.179214622775090e-4
      2.206625768304308e-4 2.234381703599240e-4 2.262486765581243e-4 2.290945345723434e-4
      2.319761890736856e-4 2.348940903265301e-4 2.378486942588838e-4 2.408404625336224e-4
      2.438698626206255e-4 2.469373678698200e-4 2.500434575851425e-4 2.531886170994299e-4
      2.563733378502554e-4 2.595981174567155e-4 2.628634597971845e-4 2.661698750880469e-4
      2.695178799634187e-4 2.729079975558731e-4 2.763407575781813e-4 2.798166964060804e-4
      2.833363571620850e-4 2.869002898003480e-4 2.905090511925957e-4 2.941632052151375e-4
      2.978633228369735e-4 3.016099822090111e-4 3.054037687543985e-4 3.092452752600028e-4
      3.131351019690309e-4 3.170738566748198e-4 3.210621548158064e-4 3.251006195716884e-4
      3.291898819608012e-4 3.333305809387123e-4 3.375233634980612e-4 3.417688847696539e-4
      3.460678081248254e-4 3.504208052790971e-4 3.548285563971303e-4 3.592917501990046e-4
      3.638110840678330e-4 3.683872641587256e-4 3.730210055091331e-4 3.777130321505685e-4
      3.824640772217402e-4 3.872748830831077e-4 3.921462014328732e-4 3.970787934244404e-4
      4.020734297853434e-4 4.071308909376747e-4 4.122519671200300e-4 4.174374585109802e-4
      4.226881753541062e-4 4.280049380845971e-4 4.333885774574461e-4 4.388399346772595e-4
      4.443598615296922e-4 4.499492205145467e-4 4.556088849805350e-4 4.613397392617450e-4
      4.671426788158181e-4 4.730186103638647e-4 4.789684520321448e-4 4.849931334955239e-4
      4.910935961227374e-4 4.972707931234837e-4 5.035256896973599e-4 5.098592631846827e-4
      5.162725032191950e-4 5.227664118826992e-4 5.293420038616375e-4 5.360003066056332e-4
      5.427423604880374e-4 5.495692189684858e-4 5.564819487575049e-4 5.634816299831895e-4
      5.705693563599702e-4 5.777462353595151e-4 5.850133883837688e-4 5.923719509401759e-4
      5.998230728191086e-4 6.073679182735178e-4 6.150076662008573e-4 6.227435103272836e-4
      6.305766593941795e-4 6.385083373470249e-4 6.465397835266350e-4 6.546722528628171e-4
      6.629070160704504e-4 6.712453598480383e-4 6.796885870787634e-4 6.882380170340554e-4
      6.968949855797406e-4 7.056608453847665e-4 7.145369661325615e-4 7.235247347350525e-4
      7.326255555493671e-4 7.418408505972754e-4 7.511720597873764e-4 7.606206411400902e-4
      7.701880710154772e-4 7.798758443439198e-4 7.896854748597113e-4 7.996184953375771e-4
      8.096764578321757e-4 8.198609339206103e-4 8.301735149479898e-4 8.406158122760813e-4
      8.511894575350871e-4 8.618961028785909e-4 8.727374212417109e-4 8.837151066024978e-4
      8.948308742466242e-4 9.060864610353988e-4 9.174836256771570e-4 9.290241490020632e-4
      9.407098342403643e-4 9.525425073041552e-4 9.645240170726749e-4 9.766562356812013e-4
      9.889410588135759e-4 1.001380405998406e-3 1.013976220908998e-3 1.026730471667058e-3
      1.039645151150214e-3 1.052722277303413e-3 1.065963893454219e-3 1.079372068632099e-3
      1.092948897891703e-3 1.106696502640223e-3 1.120617030968873e-3 1.134712657988524e-3
      1.148985586169577e-3 1.163438045686099e-3 1.178072294764292e-3 1.192890620035348e-3
      1.207895336892740e-3 1.223088789854004e-3 1.238473352927076e-3 1.254051429981236e-3
      1.269825455122718e-3 1.285797893075043e-3 1.301971239564137e-3 1.318348021708295e-3
      1.334930798413043e-3 1.351722160770982e-3 1.368724732466641e-3 1.385941170186441e-3
      1.403374164033802e-3 1.421026437949479e-3 1.438900750137187e-3 1.456999893494569e-3
      1.475326696049601e-3 1.493884021402465e-3 1.512674769173003e-3 1.531701875453786e-3
      1.550968313268880e-3 1.570477093038393e-3 1.590231263048853e-3 1.610233909929514e-3
      1.630488159134649e-3 1.650997175431902e-3 1.671764163396797e-3 1.692792367913452e-3
      1.714085074681607e-3 1.735645610730015e-3 1.757477344936297e-3 1.779583688553341e-3
      1.801968095742313e-3 1.824634064112376e-3 1.847585135267205e-3 1.870824895358359e-3
      1.894356975645637e-3 1.918185053064459e-3 1.942312850800399e-3 1.966744138870943e-3
      1.991482734714558e-3 2.016532503787175e-3 2.041897360166177e-3 2.067581267161976e-3
      2.093588237937295e-3 2.119922336134232e-3 2.146587676509205e-3 2.173588425575899e-3
      2.200928802256291e-3 2.228613078539856e-3 2.256645580151094e-3 2.285030687225412e-3
      2.313772834993540e-3 2.342876514474542e-3 2.372346273177549e-3 2.402186715812318e-3
      2.432402505008719e-3 2.462998362045289e-3 2.493979067586938e-3 2.525349462431935e-3
      2.557114448268303e-3 2.589278988439702e-3 2.621848108720974e-3 2.654826898103426e-3
      2.688220509589990e-3 2.722034161000408e-3 2.756273135786503e-3 2.790942783857747e-3
      2.826048522417185e-3 2.861595836807889e-3 2.897590281370058e-3 2.934037480308885e-3
      2.970943128573356e-3 3.008312992746097e-3 3.046152911944413e-3 3.084468798732669e-3
      3.123266640046127e-3 3.162552498126427e-3 3.202332511468824e-3 3.242612895781329e-3
      3.283399944955951e-3 3.324700032052102e-3 3.366519610292417e-3 3.408865214071075e-3
      3.451743459974820e-3 3.495161047816815e-3 3.539124761683492e-3 3.583641470994588e-3
      3.628718131576502e-3 3.674361786749156e-3 3.720579568426539e-3 3.767378698231068e-3
      3.814766488621986e-3 3.862750344037955e-3 3.911337762054001e-3 3.960536334553052e-3
      4.010353748912149e-3 4.060797789203644e-3 4.111876337411458e-3 4.163597374662666e-3
      4.215968982474574e-3 4.268999344017448e-3 4.322696745393173e-3 4.377069576929959e-3
      4.432126334493359e-3 4.487875620813750e-3 4.544326146830551e-3 4.601486733053298e-3
      4.659366310939880e-3 4.717973924292103e-3 4.777318730668785e-3 4.837410002816667e-3
      4.898257130119278e-3 4.959869620064051e-3 5.022257099727891e-3 5.085429317281422e-3
      5.149396143512170e-3 5.214167573366868e-3 5.279753727513211e-3 5.346164853921220e-3
      5.413411329464508e-3 5.481503661541699e-3 5.550452489718212e-3 5.620268587388727e-3
      5.690962863460546e-3 5.762546364058131e-3 5.835030274249097e-3 5.908425919791873e-3
      5.982744768905405e-3 6.057998434061068e-3 6.134198673797140e-3 6.211357394556121e-3
      6.289486652545106e-3 6.368598655619615e-3 6.448705765191075e-3 6.529820498158337e-3
      6.611955528863462e-3 6.695123691072102e-3 6.779337979978807e-3 6.864611554237554e-3
      6.950957738017806e-3 7.038390023086460e-3 7.126922070915940e-3 7.216567714818835e-3
      7.307340962109389e-3 7.399255996292170e-3 7.492327179278282e-3 7.586569053629413e-3
      7.681996344830169e-3 7.778623963588947e-3 7.876467008167763e-3 7.975540766741407e-3
      8.075860719786220e-3 8.177442542498964e-3 8.280302107246111e-3 8.384455486043912e-3
      8.489918953069726e-3 8.596708987204826e-3 8.704842274609319e-3 8.814335711329360e-3
      8.925206405937192e-3 9.037471682204435e-3 9.151149081808901e-3 9.266256367075556e-3
      9.382811523751913e-3 9.500832763818325e-3 9.620338528333686e-3 9.741347490316832e-3
      9.863878557664263e-3 9.987950876104549e-3 1.011358383218986e-2 1.024079705632520e-2
      1.036961042583566e-2 1.050004406807230e-2 1.063211836355707e-2 1.076585394916735e-2
      1.090127172136051e-2 1.103839283943893e-2 1.117723872885630e-2 1.131783108456532e-2
      1.146019187440760e-2 1.160434334254622e-2 1.175030801294132e-2 1.189810869286963e-2
      1.204776847648809e-2 1.219931074844237e-2 1.235275918752080e-2 1.250813777035416e-2
      1.266547077516214e-2 1.282478278554684e-2 1.298609869433399e-2 1.314944370746256e-2
      1.331484334792319e-2 1.348232345974618e-2 1.365191021203976e-2 1.382363010307898e-2
      1.399750996444622e-2 1.417357696522356e-2 1.435185861623807e-2 1.453238277436046e-2
      1.471517764685769e-2 1.490027179580052e-2 1.508769414252628e-2 1.527747397215796e-2
      1.546964093818006e-2 1.566422506707196e-2 1.586125676299972e-2 1.606076681256667e-2
      1.626278638962397e-2 1.646734706014155e-2 1.667448078714033e-2 1.688421993568662e-2
      1.709659727794907e-2 1.731164599831950e-2 1.752939969859798e-2 1.774989240324319e-2
      1.797315856468887e-2 1.819923306872695e-2 1.842815123995864e-2 1.865994884731395e-2
      1.889466210964059e-2 1.913232770136336e-2 1.937298275821450e-2 1.961666488303626e-2
      1.986341215165639e-2 2.011326311883764e-2 2.036625682430197e-2 2.062243279883057e-2
      2.088183107044066e-2 2.114449217063991e-2 2.141045714075961e-2 2.167976753836749e-2
      2.195246544376106e-2 2.222859346654287e-2 2.250819475227825e-2 2.279131298923692e-2
      2.307799241521947e-2 2.336827782446944e-2 2.366221457467262e-2 2.395984859404423e-2
      2.426122638850534e-2 2.456639504894952e-2 2.487540225860081e-2 2.518829630046442e-2
      2.550512606487096e-2 2.582594105711568e-2 2.615079140519390e-2 2.647972786763337e-2
      2.681280184142559e-2 2.715006537005659e-2 2.749157115163889e-2 2.783737254714568e-2
      2.818752358874855e-2 2.854207898826012e-2 2.890109414568291e-2 2.926462515786567e-2
      2.963272882726872e-2 3.000546267083928e-2 3.038288492899875e-2 3.076505457474284e-2
      3.115203132285620e-2 3.154387563924308e-2 3.194064875037509e-2 3.234241265285811e-2
      3.274923012311930e-2 3.316116472721602e-2 3.357828083076830e-2 3.400064360901594e-2
      3.442831905700233e-2 3.486137399988634e-2 3.529987610338381e-2 3.574389388434063e-2
      3.619349672143839e-2 3.664875486603512e-2 3.710973945314214e-2 3.757652251253903e-2
      3.804917698002857e-2 3.852777670883289e-2 3.901239648113333e-2 3.950311201975529e-2
      4.000000000000000e-2 4.050313806162539e-2 4.101260482097717e-2 4.152847988327302e-2
      4.205084385504099e-2 4.257977835671437e-2 4.311536603538527e-2 4.365769057771808e-2
      4.420683672302593e-2 4.476289027651125e-2 4.532593812267305e-2 4.589606823888290e-2
      4.647336970913134e-2 4.705793273794765e-2 4.764984866449435e-2 4.824920997683923e-2
      4.885611032640680e-2 4.947064454261141e-2 5.009290864767459e-2 5.072299987162881e-2
      5.136101666750966e-2 5.200705872673965e-2 5.266122699470488e-2 5.332362368652815e-2
      5.399435230304016e-2 5.467351764695185e-2 5.536122583923007e-2 5.605758433567896e-2
      5.676270194373032e-2 5.747668883944502e-2 5.819965658472805e-2 5.893171814476064e-2
      5.967298790565083e-2 6.042358169230694e-2 6.118361678653519e-2 6.195321194536532e-2
      6.273248741960677e-2 6.352156497263777e-2 6.432056789943136e-2 6.512962104582044e-2
      6.594885082800513e-2 6.677838525230573e-2 6.761835393516368e-2 6.846888812339462e-2
      6.933012071469586e-2 7.020218627841195e-2 7.108522107656156e-2 7.197936308512837e-2
      7.288475201562040e-2 7.380152933690004e-2 7.472983829728889e-2 7.566982394695081e-2
      7.662163316055587e-2 7.758541466023021e-2 7.856131903879394e-2 7.954949878329167e-2
      8.055010829881908e-2 8.156330393264863e-2 8.258924399865951e-2 8.362808880207428e-2
      8.468000066450699e-2 8.574514394932638e-2 8.682368508733772e-2 8.791579260278812e-2
      8.902163713969877e-2 9.014139148852834e-2 9.127523061317216e-2 9.242333167830019e-2
      9.358587407703968e-2 9.476303945900566e-2 9.595501175868392e-2 9.716197722417155e-2
      9.838412444627803e-2 9.962164438799327e-2 1.008747304143260e-1 1.021435783225171e-1
      1.034283863726339e-1 1.047293553185481e-1 1.060466884393043e-1 1.073805915708829e-1
      1.087312731383618e-1 1.100989441884843e-1 1.114838184226341e-1 1.128861122302280e-1
      1.143060447225266e-1 1.157438377668704e-1 1.171997160213482e-1 1.186739069698987e-1
      1.201666409578573e-1 1.216781512279466e-1 1.232086739567213e-1 1.247584482914718e-1
      1.263277163875908e-1 1.279167234464110e-1 1.295257177535185e-1 1.311549507175469e-1
      1.328046769094620e-1 1.344751541023372e-1 1.361666433116327e-1 1.378794088359791e-1
      1.396137182984737e-1 1.413698426884990e-1 1.431480564040632e-1 1.449486372946776e-1
      1.467718667047698e-1 1.486180295176442e-1 1.504874141999966e-1 1.523803128469865e-1
      1.542970212278789e-1 1.562378388322582e-1 1.582030689168231e-1 1.601930185527731e-1
      1.622079986737870e-1 1.642483241246084e-1 1.663143137102404e-1 1.684062902457584e-1
      1.705245806067529e-1 1.726695157804018e-1 1.748414309171903e-1 1.770406653832775e-1
      1.792675628135226e-1 1.815224711651803e-1 1.838057427722676e-1 1.861177344006187e-1
      1.884588073036298e-1 1.908293272787041e-1 1.932296647244113e-1 1.956601946983603e-1
      1.981212969758045e-1 2.006133561089825e-1 2.031367614872032e-1 2.056919073976917e-1
      2.082791930871940e-1 2.108990228243636e-1 2.135518059629272e-1 2.162379570056467e-1
      2.189578956690882e-1 2.217120469492010e-1 2.245008411877262e-1 2.273247141394379e-1
      2.301841070402292e-1 2.330794666760592e-1 2.360112454527607e-1 2.389799014667329e-1
      2.419858985765180e-1 2.450297064752794e-1 2.481118007641949e-1 2.512326630267667e-1
      2.543927809040732e-1 2.575926481709625e-1 2.608327648132045e-1 2.641136371056174e-1
      2.674357776911709e-1 2.707997056610909e-1 2.742059466359673e-1 2.776550328478814e-1
      2.811475032235720e-1 2.846839034686399e-1 2.882647861528186e-1 2.918907107963134e-1
      2.955622439572260e-1 2.992799593200834e-1 3.030444377854740e-1 3.068562675608171e-1
      3.107160442522711e-1 3.146243709577957e-1 3.185818583613912e-1 3.225891248285150e-1
      3.266467965027058e-1 3.307555074034190e-1 3.349158995250906e-1 3.391286229374553e-1
      3.433943358871159e-1 3.477137049004000e-1 3.520874048875045e-1 3.565161192479495e-1
      3.610005399773653e-1 3.655413677756131e-1 3.701393121562756e-1 3.747950915575174e-1
      3.795094334543410e-1 3.842830744722605e-1 3.891167605023955e-1 3.940112468180232e-1
      3.989672981925891e-1 4.039856890192021e-1 4.090672034316404e-1 4.142126354268678e-1
      4.194227889891028e-1 4.246984782154405e-1 4.300405274430542e-1 4.354497713780060e-1
      4.409270552256642e-1 4.464732348227746e-1 4.520891767711836e-1 4.577757585732448e-1
      4.635338687689361e-1 4.693644070746885e-1 4.752682845239758e-1 4.812464236096615e-1
      4.872997584281389e-1 4.934292348252907e-1 4.996358105442726e-1 5.059204553751688e-1
      5.122841513065217e-1 5.187278926787653e-1 5.252526863396012e-1 5.318595518013115e-1
      5.385495214000684e-1 5.453236404572306e-1 5.521829674426838e-1 5.591285741402259e-1
      5.661615458150323e-1 5.732829813832380e-1 5.804939935836369e-1 5.877957091515577e-1
      5.951892689949140e-1 6.026758283724717e-1 6.102565570743672e-1 6.179326396048811e-1
      6.257052753675269e-1 6.335756788524573e-1 6.415450798262270e-1 6.496147235239543e-1
      6.577858708438825e-1 6.660597985444058e-1 6.744377994435620e-1 6.829211826210344e-1
      6.915112736227066e-1 7.002094146677717e-1 7.090169648584657e-1 7.179353003924263e-1
      7.269658147777227e-1 7.361099190506028e-1 7.453690419959607e-1 7.547446303705954e-1
      7.642381491292667e-1 7.738510816535928e-1 7.835849299838408e-1 7.934412150536133e-1
      8.034214769275067e-1 8.135272750417450e-1 8.237601884478414e-1 8.341218160593375e-1
      8.446137769016250e-1 8.552377103649336e-1 8.659952764604830e-1 8.768881560798590e-1
      8.879180512576665e-1 8.990866854374651e-1 9.103958037410692e-1 9.218471732412240e-1
      9.334425832377089e-1 9.451838455369298e-1 9.570727947350061e-1 9.691112885044392e-1
      9.813012078843750e-1 9.936444575745139e-1 1.006142966232736e0 1.018798686776444e0
      1.031613596687722e0 1.044589698322320e0 1.057729019222512e0 1.071033612433926e0
      1.084505556826316e0 1.098146957418404e0 1.111959945706788e0 1.125946679998986e0
      1.140109345750693e0 1.154450155907241e0 1.168971351249398e0 1.183675200743479e0
      1.198564001895881e0 1.213640081112078e0 1.228905794060117e0 1.244363526038706e0
      1.260015692349919e0 1.275864738676580e0 1.291913141464429e0 1.308163408309047e0
      1.324618078347692e0 1.341279722656039e0 1.358150944649902e0 1.375234380492049e0
      1.392532699504082e0 1.410048604583542e0 1.427784832626236e0 1.445744154953877e0
      1.463929377747122e0 1.482343342484024e0 1.500988926384040e0 1.519869042857592e0
      1.538986641961285e0 1.558344710858881e0 1.577946274288022e0 1.597794395032877e0
      1.617892174402697e0 1.638242752716392e0 1.658849309793233e0 1.679715065449680e0
      1.700843280002511e0 1.722237254778238e0 1.743900332628940e0 1.765835898454611e0
      1.788047379732034e0 1.810538247050351e0 1.833312014653340e0 1.856372240988519e0
      1.879722529263174e0 1.903366528007348e0 1.927307931643953e0 1.951550481066018e0
      1.976097964221207e0 2.000954216703712e0 2.026123122353547e0 2.051608613863428e0
      2.077414673393259e0 2.103545333192338e0 2.130004676229428e0 2.156796836830702e0
      2.183926001325769e0 2.211396408701779e0 2.239212351265766e0 2.267378175315355e0
      2.295898281817850e0 2.324777127097919e0 2.354019223533898e0 2.383629140262840e0
      2.413611503894482e0 2.443970999234135e0 2.474712370014716e0 2.505840419637957e0
      2.537360011924934e0 2.569276071876078e0 2.601593586440680e0 2.634317605296148e0
      2.667453241637008e0 2.701005672973846e0 2.734980141942329e0 2.769381957122346e0
      2.804216493867514e0 2.839489195145077e0 2.875205572386363e0 2.911371206347990e0
      2.947991747983833e0 2.985072919328037e0 3.022620514389067e0 3.060640400055036e0
      3.099138517010439e0 3.138120880664366e0 3.177593582090454e0 3.217562788978613e0
      3.258034746598726e0 3.299015778776525e0 3.340512288881651e0 3.382530760828240e0
      3.425077760088026e0 3.468159934716196e0 3.511784016390197e0 3.555956821461533e0
      3.600685252020873e0 3.645976296976498e0 3.691837033146316e0 3.738274626363670e0
      3.785296332596966e0 3.832909499083475e0 3.881121565477338e0 3.929940065012003e0
      3.979372625677358e0 4.029426971411564e0 4.080110923307988e0 4.131432400837234e0
      4.183399423084569e0 4.236020110002961e0 4.289302683681782e0 4.343255469631583e0
      4.397886898084945e0 4.453205505313694e0 4.509219934962773e0 4.565938939400762e0
      4.623371381087506e0 4.681526233958876e0 4.740412584828934e0 4.800039634809822e0
      4.860416700749399e0 4.921553216687061e0 4.983458735327818e0 5.046142929534887e0
      5.109615593841161e0 5.173886645979559e0 5.238966128432744e0 5.304864210002266e0
      5.371591187397421e0 5.439157486844205e0 5.507573665714349e0 5.576850414175007e0
      5.646998556859080e0 5.718029054556561e0 5.789953005927246e0 5.862781649234847e0
      5.936526364103064e0 6.011198673293640e0 6.086810244506784e0 6.163372892204356e0
      6.240898579455805e0 6.319399419807499e0 6.398887679175467e0 6.479375777761934e0
      6.560876291996079e0 6.643401956499044e0 6.726965666073818e0 6.811580477720046e0
      6.897259612674174e0 6.984016458475378e0 7.071864571057298e0 7.160817676866267e0
      7.250889675006055e0 7.342094639409599e0 7.434446821038173e0 7.527960650108019e0
      7.622650738345199e0 7.718531881268664e0 7.815619060502038e0 7.913927446114630e0
      8.013472398991674e0 8.114269473234595e0 8.216334418591334e0 8.319683182917226e0
      8.424331914666990e0 8.530296965417842e0 8.637594892424564e0 8.746242461206567e0
      8.856256648167486e0 8.967654643247892e0 9.080453852611123e0 9.194671901363154e0
      9.310326636306492e0 9.427436128728745e0 9.546018677226394e0 9.666092810563871e0
      9.787677290568816e0 9.910791115063613e0 1.003545352083378e1 1.016168398663389e1
      1.028950223623100e1 1.041892824148667e1 1.054998222547757e1 1.068268466565529e1
      1.081705629704612e1 1.095311811549082e1 1.109089138092536e1 1.123039762070278e1
      1.137165863295684e1 1.151469649000813e1 1.165953354181281e1 1.180619241945489e1
      1.195469603868242e1 1.210506760348800e1 1.225733060973458e1 1.241150884882666e1
      1.256762641142777e1 1.272570769122472e1 1.288577738873906e1 1.304786051518673e1
      1.321198239638596e1 1.337816867671460e1 1.354644532311710e1 1.371683862916178e1
      1.388937521914940e1 1.406408205227315e1 1.424098642683116e1 1.442011598449191e1
      1.460149871461316e1 1.478516295861557e1 1.497113741441089e1 1.515945114088622e1
      1.535013356244449e1 1.554321447360195e1 1.573872404364386e1 1.593669282133824e1
      1.613715173970941e1 1.634013212087122e1 1.654566568092115e1 1.675378453489617e1
      1.696452120179058e1 1.717790860963736e1 1.739398010065315e1 1.761276943644796e1
      1.783431080330070e1 1.805863881750062e1 1.828578853075636e1 1.851579543567278e1
      1.874869547129668e1 1.898452502873252e1 1.922332095682838e1 1.946512056793389e1
      1.970996164373027e1 1.995788244113368e1 2.020892169827318e1 2.046311864054337e1
      2.072051298673368e1 2.098114495523442e1 2.124505527032084e1 2.151228516851670e1
      2.178287640503718e1 2.205687126031355e1 2.233431254659944e1 2.261524361466021e1
      2.289970836054688e1 2.318775123245466e1 2.347941723766835e1 2.377475194959473e1
      2.407380151488329e1 2.437661266063713e1 2.468323270171375e1 2.499370954811844e1
      2.530809171249016e1 2.562642831768164e1 2.594876910443516e1 2.627516443915439e1
      2.660566532177448e1 2.694032339373078e1 2.727919094602782e1 2.762232092741018e1
      2.796976695263544e1 2.832158331085198e1 2.867782497408160e1 2.903854760580886e1
      2.940380756967896e1 2.977366193830428e1 3.014816850218246e1 3.052738577872607e1
      3.091137302140600e1 3.130019022901026e1 3.169389815501849e1 3.209255831709516e1
      3.249623300670176e1 3.290498529882970e1 3.331887906185635e1 3.373797896752414e1
      3.416235050104607e1 3.459205997133767e1 3.502717452137784e1 3.546776213870037e1
      3.591389166601673e1 3.636563281197329e1 3.682305616204324e1 3.728623318955553e1
      3.775523626686319e1 3.823013867665111e1 3.871101462338707e1 3.919793924491617e1
      3.969098862420105e1 4.019023980121047e1 4.069577078495645e1 4.120766056568375e1
      4.172598912721216e1 4.225083745943381e1 4.278228757096857e1 4.332042250197745e1
      4.386532633713834e1 4.441708421878420e1 4.497578236020643e1 4.554150805912644e1
      4.611434971133554e1 4.669439682450742e1 4.728174003218368e1 4.787647110793534e1
      4.847868297970314e1 4.908846974431707e1 4.970592668219983e1 5.033115027225427e1
      5.096423820693817e1 5.160528940752954e1 5.225440403958252e1 5.291168352857910e1
      5.357723057577677e1 5.425114917425553e1 5.493354462516770e1 5.562452355419061e1
      5.632419392818782e1 5.703266507207889e1 5.775004768592122e1 5.847645386220798e1
      5.921199710338186e1 5.995679233957088e1 6.071095594654612e1 6.147460576390530e1
      6.224786111348624e1 6.303084281801032e1 6.382367321996197e1 6.462647620070462e1
      6.543937719983709e1 6.626250323479461e1 6.709598292069455e1 6.793994649043369e1
      6.879452581503696e1 6.965985442426228e1 7.053606752746560e1 7.142330203472667e1
      7.232169657824253e1 7.323139153398849e1 7.415252904365194e1 7.508525303684308e1
      7.602970925358322e1 7.698604526707789e1 7.795441050677500e1 7.893495628171313e1
      7.992783580416483e1 8.093320421357525e1 8.195121860080391e1 8.298203803267013e1
      8.402582357680712e1 8.508273832682995e1 8.615294742781840e1 8.723661810212198e1
      8.833391967548843e1 8.944502360352079e1 9.057010349846868e1 9.170933515635435e1
      9.286289658444229e1 9.403096802905273e1 9.521373200372505e1 9.641137331773695e1
      9.762407910498004e1 9.885203885320102e1 1.000954444336090e2
      </PP_R>
    <PP_RAB>
      4.559409827772582e-7 4.616760143345111e-7 4.674831837082912e-7 4.733633982806270e-7
      4.793175768470101e-7 4.853466497599545e-7 4.914515590743695e-7 4.976332586947557e-7
      5.038927145242552e-7 5.102309046155773e-7 5.166488193238186e-7 5.231474614612093e-7
      5.297278464538051e-7 5.363910025001484e-7 5.431379707319289e-7 5.499698053766591e-7
      5.568875739224016e-7 5.638923572845663e-7 5.709852499748038e-7 5.781673602720288e-7
      5.854398103955873e-7 5.928037366806064e-7 6.002602897555505e-7 6.078106347220073e-7
      6.154559513367407e-7 6.231974341960250e-7 6.310362929223073e-7 6.389737523532122e-7
      6.470110527329240e-7 6.551494499059800e-7 6.633902155134957e-7 6.717346371918635e-7
      6.801840187739470e-7 6.887396804928087e-7 6.974029591879995e-7 7.061752085144409e-7
      7.150577991539373e-7 7.240521190293477e-7 7.331595735214515e-7 7.423815856885434e-7
      7.517195964887861e-7 7.611750650053660e-7 7.707494686744751e-7 7.804443035161661e-7