<UPF version="2.0.1">
  <PP_INFO>
Generated using "atomic" code by A. Dal Corso  v.6.3
Author: ADC
Generation date:  5Sep2018
Pseudopotential type: USPP
Element: Cr
Functional: PBESOL
    Suggested minimum cutoff for wavefunctions:  48. Ry
    Suggested minimum cutoff for charge density: 456. Ry
    The Pseudo was generated with a Scalar-Relativistic Calculation
    Local Potential by smoothing AE potential with Bessel fncs, cutoff radius:   1.4000
    Pseudopotential contains additional information for GIPAW reconstruction.
    Valence configuration:
    nl pn  l   occ       Rcut    Rcut US       E pseu
    3S  1  0  2.00      0.750      1.530    -5.714168
    4S  2  0  2.00      0.750      1.530    -0.362203
    3P  2  1  6.00      1.000      1.350    -3.613620
    3D  3  2  4.00      1.100      1.650    -0.442159
    Generation configuration:
    3S  1  0  2.00      0.750      1.530    -5.714208
    4S  2  0  2.00      0.750      1.530    -0.362210
    3P  2  1  6.00      1.000      1.350    -3.613649
    4P  3  1  0.00      1.000      1.350     7.000000
    3D  3  2  4.00      1.100      1.650    -0.442184
    3D  3  2  0.00      1.100      1.650     0.050000
    Pseudization used: troullier-martins

    <PP_INPUTFILE>
 &amp;input
   title='Cr',
   zed=24.,
   rel=1,
   config='[Ar] 4s2 4p0 3d4',
   iswitch=3,
   dft='PBESOL'
 /
 &amp;inputp
   lpaw=.false.,
   use_xsd=.FALSE.,
   pseudotype=3,
   file_pseudopw='Cr.pbesol-spn-rrkjus_psl.1.0.0.UPF',
   author='ADC',
   lloc=-1,
   rcloc=1.4,
   which_augfun='PSQ',
   rmatch_augfun_nc=.true.,
   nlcc=.true.,
   new_core_ps=.true.,
   rcore=0.8,
   tm=.true.
 /
6
3S  1  0  2.00  0.00  0.75  1.53  0.0
4S  2  0  2.00  0.00  0.75  1.53  0.0
3P  2  1  6.00  0.00  1.00  1.35  0.0
4P  3  1  0.00  7.00  1.00  1.35  0.0
3D  3  2  4.00  0.00  1.10  1.65  0.0
3D  3  2  0.00  0.05  1.10  1.65  0.0
</PP_INPUTFILE>
  </PP_INFO>
  <!--
 END OF HUMAN READABLE SECTION 
-->
  <PP_HEADER generated="Generated using &quot;atomic&quot; code by A. Dal Corso  v.6.3" author="ADC" date=" 5Sep2018" comment="" element="Cr" pseudo_type="USPP" relativistic="scalar" is_ultrasoft="true" is_paw="false" is_coulomb="false" has_so="false" has_wfc="false" has_gipaw="true" paw_as_gipaw="false" core_correction="true" functional="PBESOL" z_valence="1.400000000000e1" total_psenergy="-1.741245562090e2" wfc_cutoff="4.802190442871e1" rho_cutoff="4.560782428547e2" l_max="2" l_max_rho="4" l_local="-1" mesh_size="1183" number_of_wfc="4" number_of_proj="6"/>
  <PP_MESH dx="1.250000000000e-2" mesh="1183" xmin="-7.000000000000e0" rmax="1.000000000000e2" zmesh="2.400000000000e1">
    <PP_R>
      3.799508189810484e-5 3.847300119454260e-5 3.895693197569092e-5 3.944694985671892e-5
      3.994313140391750e-5 4.044555414666288e-5 4.095429658953077e-5 4.146943822456298e-5
      4.199105954368793e-5 4.251924205129811e-5 4.305406827698487e-5 4.359562178843411e-5
      4.414398720448375e-5 4.469925020834570e-5 4.526149756099408e-5 4.583081711472160e-5
      4.640729782686680e-5 4.699102977371385e-5 4.758210416456698e-5 4.818061335600240e-5
      4.878665086629894e-5 4.940031139005053e-5 5.002169081296254e-5 5.065088622683395e-5
      5.128799594472837e-5 5.193311951633540e-5 5.258635774352561e-5 5.324781269610101e-5
      5.391758772774367e-5 5.459578749216501e-5 5.528251795945799e-5 5.597788643265529e-5
      5.668200156449558e-5 5.739497337440072e-5 5.811691326566661e-5 5.884793404287007e-5
      5.958814992949478e-5 6.033767658577897e-5 6.109663112678763e-5 6.186513214071194e-5
      6.264329970739885e-5 6.343125541711382e-5 6.422912238953959e-5 6.503702529301384e-5
      6.585509036400905e-5 6.668344542685684e-5 6.752221991372112e-5 6.837154488482192e-5
      6.923155304891392e-5 7.010237878402256e-5 7.098415815844058e-5 7.187702895198926e-5
      7.278113067754665e-5 7.369660460284670e-5 7.462359377255289e-5 7.556224303060897e-5
      7.651269904287114e-5 7.747511032002505e-5 7.844962724079073e-5 7.943640207541986e-5
      8.043558900948788e-5 8.144734416798613e-5 8.247182563971654e-5 8.350919350199330e-5
      8.455960984565557e-5 8.562323880039413e-5 8.670024656039706e-5 8.779080141031807e-5
      8.889507375157116e-5 9.001323612895645e-5 9.114546325762021e-5 9.229193205035488e-5
      9.345282164524180e-5 9.462831343364197e-5 9.581859108853902e-5 9.702384059323808e-5
      9.824425027042636e-5 9.948001081159889e-5 1.007313153068543e-4 1.019983592750660e-4
      1.032813406944316e-4 1.045804600334083e-4 1.058959202820358e-4 1.072279269836542e-4
      1.085766882670208e-4 1.099424148788301e-4 1.113253202166438e-4 1.127256203622344e-4
      1.141435341153487e-4 1.155792830278954e-4 1.170330914385630e-4 1.185051865078736e-4
      1.199957982536768e-4 1.215051595870903e-4 1.230335063488936e-4 1.245810773463775e-4
      1.261481143906590e-4 1.277348623344643e-4 1.293415691103879e-4 1.309684857696325e-4
      1.326158665212361e-4 1.342839687717928e-4 1.359730531656729e-4 1.376833836257492e-4
      1.394152273946363e-4 1.411688550764463e-4 1.429445406790723e-4 1.447425616570023e-4
      1.465631989546720e-4 1.484067370503637e-4 1.502734640006554e-4 1.521636714854310e-4
      1.540776548534555e-4 1.560157131685242e-4 1.579781492561920e-4 1.599652697510902e-4
      1.619773851448388e-4 1.640148098345618e-4 1.660778621720121e-4 1.681668645133149e-4
      1.702821432693361e-4 1.724240289566849e-4 1.745928562493575e-4 1.767889640310309e-4
      1.790126954480142e-4 1.812643979628654e-4 1.835444234086836e-4 1.858531280440834e-4
      1.881908726088611e-4 1.905580223803614e-4 1.929549472305519e-4 1.953820216838171e-4
      1.978396249754782e-4 2.003281411110494e-4 2.028479589262401e-4 2.053994721477105e-4
      2.079830794545924e-4 2.105991845407839e-4 2.132481961780271e-4 2.159305282797802e-4
      2.186465999658910e-4 2.213968356280865e-4 2.241816649962842e-4 2.270015232057385e-4
      2.298568508650321e-4 2.327480941249208e-4 2.356757047480461e-4 2.386401401795244e-4
      2.416418636184225e-4 2.446813440901356e-4 2.477590565196706e-4 2.508754818058566e-4
      2.540311068964849e-4 2.572264248643959e-4 2.604619349845234e-4 2.637381428119062e-4
      2.670555602606826e-4 2.704147056840786e-4 2.738161039554005e-4 2.772602865500490e-4
      2.807477916285611e-4 2.842791641207011e-4 2.878549558106055e-4 2.914757254230005e-4
      2.951420387105052e-4 2.988544685420291e-4 3.026135949922871e-4 3.064200054324349e-4
      3.102742946218474e-4 3.141770648010531e-4 3.181289257858317e-4 3.221304950625030e-4
      3.261823978844072e-4 3.302852673696039e-4 3.344397445997984e-4 3.386464787205087e-4
      3.429061270425013e-4 3.472193551444921e-4 3.515868369771471e-4 3.560092549683895e-4
      3.604873001300264e-4 3.650216721657261e-4 3.696130795803441e-4 3.742622397906298e-4
      3.789698792373260e-4 3.837367334986726e-4 3.885635474053469e-4 3.934510751568422e-4
      3.984000804393126e-4 4.034113365449039e-4 4.084856264925761e-4 4.136237431504589e-4
      4.188264893597328e-4 4.240946780600778e-4 4.294291324166978e-4 4.348306859489377e-4
      4.403001826605273e-4 4.458384771714553e-4 4.514464348515063e-4 4.571249319554786e-4
      4.628748557600961e-4 4.686971047026526e-4 4.745925885213907e-4 4.805622283976509e-4
      4.866069570998105e-4 4.927277191290257e-4 4.989254708668176e-4 5.052011807245041e-4
      5.115558292945181e-4 5.179904095036289e-4 5.245059267680833e-4 5.311033991507112e-4
      5.377838575199947e-4 5.445483457111450e-4 5.513979206892058e-4 5.583336527142012e-4
      5.653566255083723e-4 5.724679364255059e-4 5.796686966224007e-4 5.869600312324890e-4
      5.943430795416357e-4 6.018189951661617e-4 6.093889462330926e-4 6.170541155626833e-4
      6.248157008532382e-4 6.326749148682477e-4 6.406329856258930e-4 6.486911565909205e-4
      6.568506868689370e-4 6.651128514031510e-4 6.734789411735781e-4 6.819502633987678e-4
      6.905281417400522e-4 6.992139165083733e-4 7.080089448737118e-4 7.169146010771410e-4
      7.259322766455631e-4 7.350633806091317e-4 7.443093397214180e-4 7.536715986823464e-4
      7.631516203639241e-4 7.727508860388285e-4 7.824708956118504e-4 7.923131678542608e-4
      8.022792406411222e-4 8.123706711915831e-4 8.225890363121993e-4 8.329359326433096e-4
      8.434129769085162e-4 8.540218061673025e-4 8.647640780708226e-4 8.756414711209178e-4
      8.866556849323823e-4 8.978084404985321e-4 9.091014804601155e-4 9.205365693776017e-4
      9.321154940069000e-4 9.438400635785404e-4 9.557121100803721e-4 9.677334885438157e-4
      9.799060773337128e-4 9.922317784418281e-4 1.004712517784036e-3 1.017350245501252e-3
      1.030146936264142e-3 1.043104589581673e-3 1.056225230113539e-3 1.069510907986518e-3
      1.082963699114806e-3 1.096585705524388e-3 1.110379055681479e-3 1.124345904825104e-3
      1.138488435303857e-3 1.152808856916899e-3 1.167309407259243e-3 1.181992352071379e-3
      1.196859985593310e-3 1.211914630923020e-3 1.227158640379471e-3 1.242594395870155e-3
      1.258224309263271e-3 1.274050822764587e-3 1.290076409299037e-3 1.306303572897120e-3
      1.322734849086165e-3 1.339372805286503e-3 1.356220041212643e-3 1.373279189279474e-3
      1.390552915013586e-3 1.408043917469773e-3 1.425754929652751e-3 1.443688718944209e-3
      1.461848087535210e-3 1.480235872864040e-3 1.498854948059569e-3 1.517708222390176e-3
      1.536798641718334e-3 1.556129188960901e-3 1.575702884555212e-3 1.595522786931028e-3
      1.615591992988417e-3 1.635913638581659e-3 1.656490899009222e-3 1.677326989509911e-3
      1.698425165765259e-3 1.719788724408231e-3 1.741421003538330e-3 1.763325383243180e-3
      1.785505286126674e-3 1.807964177843766e-3 1.830705567641976e-3 1.853733008909730e-3
      1.877050099731576e-3 1.900660483450392e-3 1.924567849236672e-3 1.948775932664958e-3
      1.973288516297539e-3 1.998109430275478e-3 2.023242552917082e-3 2.048691811323899e-3
      2.074461181994331e-3 2.100554691444974e-3 2.126976416839767e-3 2.153730486627059e-3
      2.180821081184683e-3 2.208252433473158e-3 2.236028829697089e-3 2.264154609974896e-3
      2.292634169016969e-3 2.321471956812350e-3 2.350672479324056e-3 2.380240299193138e-3
      2.410180036451604e-3 2.440496369244315e-3 2.471194034559947e-3 2.502277828971164e-3
      2.533752609384082e-3 2.565623293797177e-3 2.597894862069728e-3 2.630572356699933e-3
      2.663660883612815e-3 2.697165612958023e-3 2.731091779917682e-3 2.765444685524402e-3
      2.800229697489573e-3 2.835452251042092e-3 2.871117849777607e-3 2.907232066518486e-3
      2.943800544184567e-3 2.980828996674884e-3 3.018323209760477e-3 3.056289041988422e-3
      3.094732425597246e-3 3.133659367443852e-3 3.173075949942097e-3 3.212988332013196e-3
      3.253402750048048e-3 3.294325518881696e-3 3.335763032780025e-3 3.377721766438885e-3
      3.420208275995784e-3 3.463229200054274e-3 3.506791260721267e-3 3.550901264657369e-3
      3.595566104140437e-3 3.640792758142517e-3 3.686588293420305e-3 3.732959865619363e-3
      3.779914720392190e-3 3.827460194530370e-3 3.875603717110979e-3 3.924352810657362e-3
      3.973715092314569e-3 4.023698275039536e-3 4.074310168806252e-3 4.125558681826097e-3
      4.177451821783490e-3 4.229997697087128e-3 4.283204518136935e-3 4.337080598606943e-3
      4.391634356744348e-3 4.446874316684842e-3 4.502809109784555e-3 4.559447475968708e-3
      4.616798265097249e-3 4.674870438347655e-3 4.733673069615158e-3 4.793215346930518e-3
      4.853506573895709e-3 4.914556171137607e-3 4.976373677779984e-3 5.038968752934029e-3
      5.102351177207581e-3 5.166530854233388e-3 5.231517812216556e-3 5.297322205501484e-3
      5.363954316158511e-3 5.431424555590487e-3 5.499743466159595e-3 5.568921722834606e-3
      5.638970134858862e-3 5.709899647439269e-3 5.781721343456470e-3 5.854446445196590e-3
      5.928086316104736e-3 6.002652462560553e-3 6.078156535676142e-3 6.154610333116536e-3
      6.232025800943131e-3 6.310415035480278e-3 6.389790285205353e-3 6.470163952662626e-3
      6.551548596401152e-3 6.633956932937098e-3 6.717401838740702e-3 6.801896352248267e-3
      6.887453675899440e-3 6.974087178200107e-3 7.061810395811258e-3 7.150637035664119e-3
      7.240580977101880e-3 7.331656274048397e-3 7.423877157204104e-3 7.517258036269619e-3
      7.611813502197283e-3 7.707558329471011e-3 7.804507478414877e-3 7.902676097530639e-3
      8.002079525864758e-3 8.102733295405152e-3 8.204653133508087e-3 8.307854965355633e-3
      8.412354916443977e-3 8.518169315103087e-3 8.625314695048035e-3 8.733807797962410e-3
      8.843665576114295e-3 8.954905195005026e-3 9.067544036051377e-3 9.181599699301415e-3
      9.297090006184575e-3 9.414033002296287e-3 9.532446960217605e-3 9.652350382370368e-3
      9.773762003908242e-3 9.896700795644088e-3 1.002118596701426e-2 1.014723696908003e-2
      1.027487349756694e-2 1.040411549594224e-2 1.053498315853110e-2 1.066749693367209e-2
      1.080167752691215e-2 1.093754590424197e-2 1.107512329537195e-2 1.121443119704933e-2
      1.135549137641719e-2 1.149832587441555e-2 1.164295700922531e-2 1.178940737975554e-2
      1.193769986917459e-2 1.208785764848564e-2 1.223990418014721e-2 1.239386322173920e-2
      1.254975882967510e-2 1.270761536296080e-2 1.286745748700083e-2 1.302931017745224e-2
      1.319319872412723e-2 1.335914873494462e-2 1.352718613993124e-2 1.369733719527351e-2
      1.386962848741998e-2 1.404408693723560e-2 1.422073980420808e-2 1.439961469070727e-2
      1.458073954629814e-2 1.476414267210787e-2 1.494985272524799e-2 1.513789872329214e-2
      1.532831004881010e-2 1.552111645395888e-2 1.571634806513154e-2 1.591403538766455e-2
      1.611420931060423e-2 1.631690111153329e-2 1.652214246145804e-2 1.672996542975695e-2
      1.694040248919164e-2 1.715348652098078e-2 1.736925081993785e-2 1.758772909967357e-2
      1.780895549786361e-2 1.803296458158281e-2 1.825979135270623e-2 1.848947125337833e-2
      1.872204017155090e-2 1.895753444659057e-2 1.919599087495692e-2 1.943744671595203e-2
      1.968193969754228e-2 1.992950802225351e-2 2.018019037314011e-2 2.043402591982943e-2
      2.069105432464208e-2 2.095131574878921e-2 2.121485085864788e-2 2.148170083211518e-2
      2.175190736504235e-2 2.202551267774991e-2 2.230255952162459e-2 2.258309118579947e-2
      2.286715150391777e-2 2.315478486098216e-2 2.344603620028984e-2 2.374095103045512e-2
      2.403957543252028e-2 2.434195606715567e-2 2.464814018195065e-2 2.495817561879607e-2
      2.527211082135973e-2 2.558999484265574e-2 2.591187735270918e-2 2.623780864631709e-2
      2.656783965090725e-2 2.690202193449550e-2 2.724040771374364e-2 2.758304986211809e-2
      2.793000191815165e-2 2.828131809380895e-2 2.863705328295718e-2 2.899726306994342e-2
      2.936200373827973e-2 2.973133227943762e-2 3.010530640175303e-2 3.048398453944341e-2
      3.086742586173825e-2 3.125569028212425e-2 3.164883846770704e-2 3.204693184869046e-2
      3.245003262797520e-2 3.285820379087820e-2 3.327150911497406e-2 3.369001318006053e-2
      3.411378137824927e-2 3.454287992418335e-2 3.497737586538364e-2 3.541733709272494e-2
      3.586283235104410e-2 3.631393124988160e-2 3.677070427435814e-2 3.723322279618816e-2
      3.770155908483166e-2 3.817578631878659e-2 3.865597859702307e-2 3.914221095056149e-2
      3.963455935419642e-2 4.013310073836759e-2 4.063791300118055e-2 4.114907502057842e-2
      4.166666666666666e-2 4.219076881419311e-2 4.272146335518456e-2 4.325883321174273e-2
      4.380296234900102e-2 4.435393578824415e-2 4.491183962019299e-2 4.547676101845633e-2
      4.604878825315200e-2 4.662801070469921e-2 4.721451887778444e-2 4.780840441550302e-2
      4.840976011367848e-2 4.901867993536213e-2 4.963525902551496e-2 5.025959372587420e-2
      5.089178159000709e-2 5.153192139855355e-2 5.218011317466105e-2 5.283645819961334e-2
      5.350105902865590e-2 5.417401950702048e-2 5.485544478615092e-2 5.554544134013348e-2
      5.624411698233351e-2 5.695158088224152e-2 5.766794358253132e-2 5.839331701633224e-2
      5.912781452471908e-2 5.987155087442188e-2 6.062464227575839e-2 6.138720640079232e-2
      6.215936240171962e-2 6.294123092948639e-2 6.373293415264082e-2 6.453459577642223e-2
      6.534634106209038e-2 6.616829684649766e-2 6.700059156190765e-2 6.784335525606295e-2
      6.869671961250534e-2 6.956081797115178e-2 7.043578534912882e-2 7.132175846186939e-2
      7.221887574447484e-2 7.312727737334578e-2 7.404710528808494e-2 7.497850321367538e-2
      7.592161668293791e-2 7.687659305927087e-2 7.784358155967592e-2 7.882273327807376e-2
      7.981420120891237e-2 8.081814027107313e-2 8.183470733207702e-2 8.286406123259550e-2
      8.390636281126989e-2 8.496177492984231e-2 8.603046249860364e-2 8.711259250216070e-2
      8.820833402552813e-2 8.931785828054831e-2 9.044133863264346e-2 9.157895062790429e-2
      9.273087202051954e-2 9.389728280055037e-2 9.507836522205434e-2 9.627430383156270e-2
      9.748528549691633e-2 9.871149943646424e-2 9.995313724862909e-2 1.012103929418454e-1
      1.024834629648729e-1 1.037725462374930e-1 1.050778441815896e-1 1.063995607526220e-1
      1.077379024714936e-1 1.090930784568209e-1 1.104653004576087e-1 1.118547828863363e-1
      1.132617428524602e-1 1.146864001963378e-1 1.161289775235772e-1 1.175897002398208e-1
      1.190687965859652e-1 1.205664976738234e-1 1.220830375222377e-1 1.236186530936445e-1
      1.251735843311014e-1 1.267480741957777e-1 1.283423687049180e-1 1.299567169702831e-1
      1.315913712370737e-1 1.332465869233448e-1 1.349226226599151e-1 1.366197403307781e-1
      1.383382051140230e-1 1.400782855232679e-1 1.418402534496174e-1 1.436243842041449e-1
      1.454309565609101e-1 1.472602528005197e-1 1.491125587542325e-1 1.509881638486226e-1
      1.528873611508019e-1 1.548104474142127e-1 1.567577231249965e-1 1.587294925489443e-1
      1.607260637790406e-1 1.627477487836023e-1 1.647948634550240e-1 1.668677276591387e-1
      1.689666652851949e-1 1.710920042964671e-1 1.732440767815004e-1 1.754232190059983e-1
      1.776297714653676e-1 1.798640789379185e-1 1.821264905387399e-1 1.844173597742474e-1
      1.867370445974194e-1 1.890859074637295e-1 1.914643153877788e-1 1.938726400006445e-1
      1.963112576079477e-1 1.987805492486501e-1 2.012809007545951e-1 2.038127028107919e-1
      2.063763510164630e-1 2.089722459468568e-1 2.116007932158367e-1 2.142624035392621e-1
      2.169574927991604e-1 2.196864821087121e-1 2.224497978780492e-1 2.252478718808820e-1
      2.280811413219669e-1 2.309500489054177e-1 2.338550429038814e-1 2.367965772285812e-1
      2.397751115002388e-1 2.427911111208950e-1 2.458450473466257e-1 2.489373973611801e-1
      2.520686443505396e-1 2.552392775784161e-1 2.584497924627030e-1 2.617006906528819e-1
      2.649924801084095e-1 2.683256751780860e-1 2.717007966804213e-1 2.751183719850181e-1
      2.785789350949697e-1 2.820830267303030e-1 2.856311944124659e-1 2.892239925498765e-1
      2.928619825245542e-1 2.965457327798332e-1 3.002758189091860e-1 3.040528237461599e-1
      3.078773374554438e-1 3.117499576250869e-1 3.156712893598687e-1 3.196419453758512e-1
      3.236625460961157e-1 3.277337197477038e-1 3.318561024597825e-1 3.360303383630365e-1
      3.402570796903186e-1 3.445369868785614e-1 3.488707286719694e-1 3.532589822265159e-1
      3.577024332157457e-1 3.622017759379168e-1 3.667577134244839e-1 3.713709575499474e-1
      3.760422291430888e-1 3.807722580995970e-1 3.855617834961204e-1 3.904115537057473e-1
      3.953223265149386e-1 4.002948692419380e-1 4.053299588566619e-1 4.104283821021076e-1
      4.155909356172803e-1 4.208184260616689e-1 4.261116702412921e-1 4.314714952363206e-1
      4.368987385303154e-1 4.423942481410838e-1 4.479588827531814e-1 4.535935118520896e-1
      4.592990158600669e-1 4.650762862737235e-1 4.709262258033162e-1 4.768497485137967e-1
      4.828477799676418e-1 4.889212573694673e-1 4.950711297124748e-1 5.012983579267308e-1
      5.076039150293114e-1 5.139887862763445e-1 5.204539693169505e-1 5.270004743491342e-1
      5.336293242776268e-1 5.403415548737139e-1 5.471382149370846e-1 5.540203664596995e-1
      5.609890847917379e-1 5.680454588096152e-1 5.751905910861289e-1 5.824255980627353e-1
      5.897516102239920e-1 5.971697722742062e-1 6.046812433162886e-1 6.122871970328726e-1
      6.199888218697021e-1 6.277873212213247e-1 6.356839136191325e-1 6.436798329217511e-1
      6.517763285078405e-1 6.599746654713097e-1 6.682761248189864e-1 6.766820036707858e-1
      6.851936154623775e-1 6.938122901504227e-1 7.025393744203771e-1 7.113762318969109e-1
      7.203242433569859e-1 7.293848069455954e-1 7.385593383942352e-1 7.478492712421106e-1
      7.572560570601278e-1 7.667811656777114e-1 7.764260854124591e-1 7.861923233027035e-1
      7.960814053429862e-1 8.060948767224923e-1 8.162343020665009e-1 8.265012656808471e-1
      8.368973717994862e-1 8.474242448351511e-1 8.580835296331681e-1 8.688768917284765e-1
      8.798060176058595e-1 8.908726149634726e-1 9.020784129796699e-1 9.134251625831864e-1
      9.249146367267361e-1 9.365486306640260e-1 9.483289622302804e-1 9.602574721262750e-1
      9.723360242059467e-1 9.845665057676353e-1 9.969508278489647e-1 1.009490925525457e0
      1.022188758212891e0 1.035046309973452e0 1.048065589825766e0 1.061248632058796e0
      1.074597496549711e0 1.088114269085750e0 1.101801061690117e0 1.115660012952006e0
      1.129693288360746e0 1.143903080644171e0 1.158291610111237e0 1.172861124998944e0
      1.187613901823638e0 1.202552245736710e0 1.217678490884789e0 1.232995000774457e0
      1.248504168641543e0 1.264208417825082e0 1.280110202145956e0 1.296212006290319e0
      1.312516346197832e0 1.329025769454771e0 1.345742855692113e0 1.362670216988590e0
      1.379810498278846e0 1.397166377766707e0 1.414740567343648e0 1.432535813012551e0
      1.450554895316752e0 1.468800629774522e0 1.487275867318996e0 1.505983494743622e0
      1.524926435153252e0 1.544107648420858e0 1.563530131650042e0 1.583196919643325e0
      1.603111085376339e0 1.623275740478001e0 1.643694035716690e0 1.664369161492581e0
      1.685304348336143e0 1.706502867412908e0 1.727968031034617e0 1.749703193176750e0
      1.771711750002616e0 1.793997140393999e0 1.816562846488480e0 1.839412394223554e0
      1.862549353887536e0 1.885977340677448e0 1.909700015263896e0 1.933721084363041e0
      1.958044301315806e0 1.982673466674321e0 2.007612428795784e0 2.032865084443769e0
      2.058435379397091e0 2.084327309066367e0 2.110544919118278e0 2.137092306107738e0
      2.163973618117979e0 2.191193055408685e0 2.218754871072321e0 2.246663371698649e0
      2.274922918047677e0 2.303537925731020e0 2.332512865901840e0 2.361852265953495e0
      2.391560710226927e0 2.421642840726999e0 2.452103357847811e0 2.482947021107125e0
      2.514178649890086e0 2.545803124202224e0 2.577825385431995e0 2.610250437122871e0
      2.643083345755139e0 2.676329241537581e0 2.709993319209042e0 2.744080838850154e0
      2.778597126705217e0 2.813547576014423e0 2.848937647856593e0 2.884772872002443e0
      2.921058847778660e0 2.957801244942789e0 2.995005804569128e0 3.032678339945823e0
      3.070824737483160e0 3.109450957633371e0 3.148563035821945e0 3.188167083390662e0
      3.228269288552541e0 3.268875917358715e0 3.309993314677556e0 3.351627905186055e0
      3.393786194373673e0 3.436474769558880e0 3.479700300918386e0 3.523469542529417e0
      3.567789333425027e0 3.612666598662704e0 3.658108350406455e0 3.704121689022430e0
      3.750713804188409e0 3.797891976017185e0 3.845663576194079e0 3.894036069128823e0
      3.943017013121839e0 3.992614061545286e0 4.042834964038893e0 4.093687567720836e0
      4.145179818413914e0 4.197319761887047e0 4.250115545112487e0 4.303575417538785e0
      4.357707732379759e0 4.412520947919751e0 4.468023628835190e0 4.524224447532900e0
      4.581132185505150e0 4.638755734701765e0 4.697104098919556e0 4.756186395209126e0
      4.816011855299486e0 4.876589827040497e0 4.937929775863473e0 5.000041286260232e0
      5.062934063280624e0 5.126617934049023e0 5.191102849299811e0 5.256398884932174e0
      5.322516243584543e0 5.389465256228707e0 5.457256383784109e0 5.525900218752361e0
      5.595407486872314e0 5.665789048796047e0 5.737055901785780e0 5.809219181432298e0
      5.882290163394875e0 5.956280265163084e0 6.031201047840881e0 6.107064217952966e0
      6.183881629274025e0 6.261665284680874e0 6.340427338027901e0 6.420180096046205e0
      6.500936020266463e0 6.582707728966144e0 6.665507999141112e0 6.749349768502015e0
      6.834246137495916e0 6.920210371353171e0 7.007255902160227e0 7.095396330958381e0
      7.184645429868930e0 7.275017144245186e0 7.366525594851352e0 7.459185080069028e0
      7.553010078131307e0 7.648015249385000e0 7.744215438581430e0 7.841625677195854e0
      7.940261185776250e0 8.040137376321525e0 8.141269854689623e0 8.243674423036072e0
      8.347367082282993e0 8.452364034619370e0 8.558681686032640e0 8.666336648872109e0
      8.775345744444781e0 8.885726005643585e0 8.997494679608922e0 9.110669230423508e0
      9.225267341841132e0 9.341306920049886e0 9.458806096469921e0 9.577783230586618e0
      9.698256912819263e0 9.820245967425775e0 9.943769455444160e0 1.006884667767070e1
      1.019549717767585e1 1.032374074485793e1 1.045359741753519e1 1.058508748607697e1
      1.071823149607396e1 1.085305025154862e1 1.098956481820580e1 1.112779652672426e1
      1.126776697608971e1 1.140949803696961e1 1.155301185513058e1 1.169833085489873e1
      1.184547774266337e1 1.199447551042514e1 1.214534743938834e1 1.229811710359885e1
      1.245280837362753e1 1.260944542029999e1 1.276805271847353e1 1.292865505086110e1
      1.309127751190393e1 1.325594551169242e1 1.342268477993652e1 1.359152136998618e1
      1.376248166290204e1 1.393559237157771e1 1.411088054491365e1 1.428837357204352e1
      1.446809918661396e1 1.465008547111787e1 1.483436086128246e1 1.502095415051240e1
      1.520989449438870e1 1.540121141522455e1 1.559493480667801e1 1.579109493842315e1
      1.598972246087968e1 1.619084841000203e1 1.639450421212902e1 1.660072168889400e1
      1.680953306219730e1 1.702097095924086e1 1.723506841762620e1 1.745185889051685e1
      1.767137625186519e1 1.789365480170558e1 1.811872927151369e1 1.834663482963329e1
      1.857740708677157e1 1.881108210156315e1 1.904769638620454e1 1.928728691215915e1
      1.952989111593404e1 1.977554690492971e1 2.002429266336289e1 2.027616725826447e1
      2.053121004555237e1 2.078946087618092e1 2.105096010236790e1 2.131574858389934e1
      2.158386769451425e1 2.185535932836919e1 2.213026590658421e1 2.240863038387156e1
      2.269049625524706e1 2.297590756282662e1 2.326490890270775e1 2.355754543193771e1
      2.385386287556966e1 2.415390753380693e1 2.445772628923787e1 2.476536661416118e1
      2.507687657800343e1 2.539230485483034e1 2.571170073095182e1 2.603511411262337e1
      2.636259553384392e1 2.669419616425170e1 2.702996781711996e1 2.736996295745249e1
      2.771423471018174e1 2.806283686846956e1 2.841582390211231e1 2.877325096605226e1
      2.913517390899525e1 2.950164928213748e1 2.987273434800166e1 3.024848708938423e1
      3.062896621841558e1 3.101423118573363e1 3.140434218977339e1 3.179936018617299e1
      3.219934689729792e1 3.260436482188569e1 3.301447724481092e1 3.342974824697412e1
      3.385024271531433e1 3.427602635294761e1 3.470716568943370e1 3.514372809117098e1
      3.558578177192298e1 3.603339580347674e1 3.648664012643525e1 3.694558556114622e1
      3.741030381876743e1 3.788086751247218e1 3.835735016879505e1 3.883982623912035e1
      3.932837111131583e1 3.982306112151157e1 4.032397356602820e1 4.083118671345434e1
      4.134477981687609e1 4.186483312626091e1 4.239142790099630e1 4.292464642258724e1
      4.346457200751266e1 4.401128902024355e1 4.456488288642559e1 4.512544010622650e1
      4.569304826785245e1 4.626779606123355e1 4.684977329188169e1 4.743907089492338e1
      4.803578094930786e1 4.863999669219522e1 4.925181253352466e1 4.987132407076598e1
      5.049862810385743e1 5.113382265033028e1 5.177700696062483e1 5.242828153359819e1
      5.308774813222726e1 5.375550979950994e1 5.443167087456512e1 5.511633700893657e1
      5.580961518310080e1 5.651161372318285e1 5.722244231788302e1 5.794221203561521e1
      5.867103534186231e1 5.940902611674884e1 6.015629967283460e1 6.091297277313330e1
      6.167916364935611e1 6.245499202038634e1 6.324057911098555e1 6.403604767073467e1
      6.484152199321485e1 6.565712793542743e1 6.648299293746039e1 6.731924604240064e1
      6.816601791649695e1 6.902344086957772e1 6.989164887572348e1 7.077077759420177e1
      7.166096439066351e1 7.256234835860655e1 7.347507034110999e1 7.439927295284029e1
      7.533510060233597e1 7.628269951457135e1 7.724221775380411e1 7.821380524671155e1
      7.919761380581587e1 8.019379715320614e1 8.120251094455730e1 8.222391279345116e1
      8.325816229600504e1 8.430542105580754e1 8.536585270917074e1 8.643962295069805e1
      8.752689955917408e1 8.862785242378120e1 8.974265357064416e1 9.087147718971039e1
      9.201449966196712e1 9.317189958700082e1 9.434385781090487e1 9.553055745453577e1
      9.673218394212739e1 9.794892503026325e1 9.918097083721358e1
      </PP_R>
    <PP_RAB>
      4.749385237263107e-7 4.809125149317825e-7 4.869616496961365e-7 4.930868732089865e-7
      4.992891425489687e-7 5.055694268332860e-7 5.119287073691346e-7 5.183679778070372e-7
      5.248882442960994e-7 5.314905256412264e-7 5.381758534623109e-7 5.449452723554264e-7
      5.517998400560470e-7 5.587406276043212e-7 5.657687195124260e-7 5.728852139340201e-7
      5.800912228358351e-7 5.873878721714231e-7 5.947763020570872e-7 6.022576669500301e-7
      6.098331358287368e-7 6.175038923756317e-7 6.252711351620317e-7 6.331360778354243e-7
      6.410999493091047e-7 6.491639939541925e-7 6.573294717940701e-7 6.655976587012626e-7
      6.739698465967959e-7 6.824473436520626e-7 6.910314744932249e-7 6.997235804081910e-7
      7.085250195561947e-7 7.174371671800089e-7 7.264614158208326e-7 7.355991755358758e-7
      7.448518741186846e-7 7.542209573222372e-7 7.637078890848453e-7 7.733141517588993e-7
      7.830412463424857e-7 7.928906927139227e-7 8.028640298692448e-7 8.129628161626730e-7
      8.231886295501130e-7 8.335430678357106e-7 8.440277489215140e-7 8.546443110602739e-7