<UPF version="2.0.1">
  <PP_INFO>
Generated using "atomic" code by A. Dal Corso  v.6.3MaX
Author: ADC
Generation date:  3Sep2018
Pseudopotential type: PAW
Element: He
Functional:  SLA  PZ   NOGX NOGC
    Suggested minimum cutoff for wavefunctions:  46. Ry
    Suggested minimum cutoff for charge density: 203. Ry
    The Pseudo was generated with a Fully-Relativistic Calculation
    Local Potential by smoothing AE potential with Bessel fncs, cutoff radius:   0.6000
    Pseudopotential contains additional information for spin-orbit calculations.
    Pseudopotential contains additional information for GIPAW reconstruction.
    Valence configuration:
    nl pn  l   occ       Rcut    Rcut US       E pseu
    1S  1  0  2.00      0.900      1.100    -1.140452
    Generation configuration:
    1S  1  0  2.00      0.900      1.100    -1.140449
    1S  1  0  0.00      0.900      1.100     0.050000
    Pseudization used: troullier-martins

    <PP_INPUTFILE>
 &amp;input
   title='He',
   zed=2.,
   rel=2,
   config='1s2 2p-2',
   iswitch=3,
   dft='LDA'
 /
 &amp;inputp
   lpaw=.true.,
   use_xsd=.FALSE.,
   pseudotype=3,
   file_pseudopw='He.rel-pz-kjpaw_psl.1.0.0.UPF',
   author='ADC',
   lloc=-1,
   rcloc=0.6
   which_augfun='PSQ',
   rmatch_augfun_nc=.true.,
   tm=.true.
 /
2
1S  1  0  2.00  0.00  0.90  1.10  0.0
1S  1  0  0.00  0.05  0.90  1.10  0.0
</PP_INPUTFILE>
  </PP_INFO>
  <!--
 END OF HUMAN READABLE SECTION 
-->
  <PP_HEADER generated="Generated using &quot;atomic&quot; code by A. Dal Corso  v.6.3MaX" author="ADC" date=" 3Sep2018" comment="" element="He" pseudo_type="PAW" relativistic="full" is_ultrasoft="true" is_paw="true" is_coulomb="false" has_so="true" has_wfc="true" has_gipaw="true" paw_as_gipaw="true" core_correction="false" functional=" SLA  PZ   NOGX NOGC" z_valence="2.000000000000e0" total_psenergy="-5.668861968371e0" wfc_cutoff="4.574656602309e1" rho_cutoff="2.027431382753e2" l_max="0" l_max_rho="0" l_local="-1" mesh_size="985" number_of_wfc="1" number_of_proj="2"/>
  <PP_MESH dx="1.250000000000e-2" mesh="985" xmin="-7.000000000000e0" rmax="1.000000000000e2" zmesh="2.000000000000e0">
    <PP_R>
      4.559409827772581e-4 4.616760143345111e-4 4.674831837082911e-4 4.733633982806269e-4
      4.793175768470100e-4 4.853466497599545e-4 4.914515590743693e-4 4.976332586947557e-4
      5.038927145242552e-4 5.102309046155773e-4 5.166488193238186e-4 5.231474614612093e-4
      5.297278464538051e-4 5.363910025001484e-4 5.431379707319289e-4 5.499698053766592e-4
      5.568875739224016e-4 5.638923572845663e-4 5.709852499748037e-4 5.781673602720288e-4
      5.854398103955872e-4 5.928037366806064e-4 6.002602897555504e-4 6.078106347220073e-4
      6.154559513367404e-4 6.231974341960248e-4 6.310362929223072e-4 6.389737523532121e-4
      6.470110527329240e-4 6.551494499059800e-4 6.633902155134957e-4 6.717346371918634e-4
      6.801840187739469e-4 6.887396804928085e-4 6.974029591879995e-4 7.061752085144408e-4
      7.150577991539373e-4 7.240521190293478e-4 7.331595735214515e-4 7.423815856885435e-4
      7.517195964887861e-4 7.611750650053659e-4 7.707494686744752e-4 7.804443035161661e-4
      7.902610843681086e-4 8.002013451222822e-4 8.102666389646533e-4 8.204585386178632e-4
      8.307786365869669e-4 8.412285454082706e-4 8.518098979012869e-4 8.625243474238712e-4
      8.733735681305600e-4 8.843592552341603e-4 8.954831252706349e-4 9.067469163673076e-4
      9.181523885144536e-4 9.297013238403006e-4 9.413955268894886e-4 9.532368249050382e-4
      9.652270681138546e-4 9.773681300158335e-4 9.896619076765983e-4 1.002110322023919e-3
      1.014715318147867e-3 1.027478865604729e-3 1.040402958724765e-3 1.053489616923817e-3
      1.066740885018854e-3 1.080158833547477e-3 1.093745559091443e-3 1.107503184604258e-3
      1.121433859742902e-3 1.135539761203703e-3 1.149823093062468e-3 1.164286087118857e-3
      1.178931003245116e-3 1.193760129739187e-3 1.208775783682252e-3 1.223980311300792e-3
      1.239376088333179e-3 1.254965520400899e-3 1.270751043384429e-3 1.286735123803850e-3
      1.302920259204249e-3 1.319308978545961e-3 1.335903842599725e-3 1.352707444346813e-3
      1.369722409384184e-3 1.386951396334744e-3 1.404397097262756e-3 1.422062238094484e-3
      1.439949579044121e-3 1.458061915045084e-3 1.476402076186723e-3 1.494972928156530e-3
      1.513777372687908e-3 1.532818348013572e-3 1.552098829324654e-3 1.571621829235590e-3
      1.591390398254833e-3 1.611407625261513e-3 1.631676637988074e-3 1.652200603508991e-3
      1.672982728735636e-3 1.694026260917356e-3 1.715334488148867e-3 1.736910739884027e-3
      1.758758387456064e-3 1.780880844604365e-3 1.803281568007865e-3 1.825964057825172e-3
      1.848931858241466e-3 1.872188558022290e-3 1.895737791074304e-3 1.919583237013082e-3
      1.943728621738065e-3 1.968177718014741e-3 1.992934346064145e-3 2.018002374159779e-3
      2.043385719232033e-3 2.069088347480219e-3 2.095114274992290e-3 2.121467568372370e-3
      2.148152345376170e-3 2.175172775554385e-3 2.202533080904203e-3 2.230237536529001e-3
      2.258290471306333e-3 2.286696268564337e-3 2.315459366766623e-3 2.344584260205806e-3
      2.374075499705739e-3 2.403937693332593e-3 2.434175507114881e-3 2.464793665772526e-3
      2.495796953455108e-3 2.527190214489407e-3 2.558978354136326e-3 2.591166339357363e-3
      2.623759199590692e-3 2.656762027537038e-3 2.690179979955410e-3 2.724018278468863e-3
      2.758282210380385e-3 2.792977129499050e-3 2.828108456976554e-3 2.863681682154293e-3
      2.899702363421071e-3 2.936176129081626e-3 2.973108678236047e-3 3.010505781670280e-3
      3.048373282757819e-3 3.086717098372751e-3 3.125543219814281e-3 3.164857713742873e-3
      3.204666723128192e-3 3.244976468208943e-3 3.285793247464807e-3 3.327123438600587e-3
      3.368973499542733e-3 3.411349969448414e-3 3.454259469727266e-3 3.497708705076005e-3
      3.541704464526063e-3 3.586253622504350e-3 3.631363139907446e-3 3.677040065189218e-3
      3.723291535462169e-3 3.770124777612638e-3 3.817547109429981e-3 3.865565940750035e-3
      3.914188774612887e-3 3.963423208435247e-3 4.013276935197581e-3 4.063757744646106e-3
      4.114873524510015e-3 4.166632261733905e-3 4.219042043725765e-3 4.272111059620673e-3
      4.325847601560317e-3 4.380260065988714e-3 4.435356954964130e-3 4.491146877487557e-3
      4.547638550847912e-3 4.604840801984070e-3 4.662762568864164e-3 4.721412901882106e-3
      4.780800965271752e-3 4.840936038538846e-3 4.901827517910914e-3 4.963484917805506e-3
      5.025917872316793e-3 5.089136136720934e-3 5.153149589000375e-3 5.217968231387252e-3
      5.283602191926327e-3 5.350061726057463e-3 5.417357218218076e-3 5.485499183465744e-3
      5.554498269121153e-3 5.624365256431832e-3 5.695111062256688e-3 5.766746740771811e-3
      5.839283485197726e-3 5.912732629548310e-3 5.987105650401812e-3 6.062414168694050e-3
      6.138669951534218e-3 6.215884914043547e-3 6.294071121216999e-3 6.373240789808534e-3
      6.453406290239937e-3 6.534580148533741e-3 6.616775048270471e-3 6.700003832570413e-3
      6.784279506100467e-3 6.869615237106073e-3 6.956024359468810e-3 7.043520374789868e-3
      7.132116954499628e-3 7.221827941993940e-3 7.312667354797111e-3 7.404649386752200e-3
      7.497788410238860e-3 7.592098978418973e-3 7.687595827510717e-3 7.784293879091044e-3
      7.882208242427245e-3 7.981354216837810e-3 8.081747294082938e-3 8.183403160785213e-3
      8.286337700880628e-3 8.390566998100478e-3 8.496107338484542e-3 8.602975212925690e-3
      8.711187319746758e-3 8.820760567309582e-3 8.931712076657018e-3 9.044059184188157e-3
      9.157819444367089e-3 9.273010632465940e-3 9.389650747342204e-3 9.507758014251127e-3
      9.627350887693465e-3 9.748448054298997e-3 9.871068435746391e-3 9.995231191719716e-3
      1.012095572290220e-2 1.024826167400763e-2 1.037716893684987e-2 1.050769765345101e-2
      1.063986821918859e-2 1.077370128598239e-2 1.090921776552139e-2 1.104643883253122e-2
      1.118538592808280e-2 1.132608076294249e-2 1.146854532096446e-2 1.161280186252579e-2
      1.175887292800455e-2 1.190678134130194e-2 1.205655021340844e-2 1.220820294601502e-2
      1.236176323516970e-2 1.251725507498007e-2 1.267470276136247e-2 1.283413089583822e-2
      1.299556438937767e-2 1.315902846629266e-2 1.332454866817774e-2 1.349215085790124e-2
      1.366186122364629e-2 1.383370628300279e-2 1.400771288711091e-2 1.418390822485655e-2
      1.436231982711972e-2 1.454297557107624e-2 1.472590368455364e-2 1.491113275044186e-2
      1.509869171115925e-2 1.528860987317505e-2 1.548091691158845e-2 1.567564287476544e-2
      1.587281818903398e-2 1.607247366343803e-2 1.627464049455171e-2 1.647935027135368e-2
      1.668663498016304e-2 1.689652700963728e-2 1.710905915583302e-2 1.732426462733051e-2
      1.754217705042252e-2 1.776283047436848e-2 1.798625937671483e-2 1.821249866868212e-2
      1.844158370062001e-2 1.867355026753081e-2 1.890843461466254e-2 1.914627344317233e-2
      1.938710391586100e-2 1.963096366297991e-2 1.987789078811066e-2 2.012792387411892e-2
      2.038110198918311e-2 2.063746469289877e-2 2.089705204245996e-2 2.115990459891816e-2
      2.142606343352009e-2 2.169557013412518e-2 2.196846681170371e-2 2.224479610691676e-2
      2.252460119677891e-2 2.280792580140470e-2 2.309481419084006e-2 2.338531119197949e-2
      2.367946219557046e-2 2.397731316330574e-2 2.427891063500498e-2 2.458430173588679e-2
      2.489353418393197e-2 2.520665629733969e-2 2.552371700207721e-2 2.584476583952471e-2
      2.616985297421619e-2 2.649902920167790e-2 2.683234595636507e-2 2.716985531969875e-2
      2.751161002820363e-2 2.785766348174819e-2 2.820806975188868e-2 2.856288359031764e-2
      2.892216043741924e-2 2.928595643093178e-2 2.965432841471936e-2 3.002733394765397e-2
      3.040503131260899e-2 3.078747952556612e-2 3.117473834483673e-2 3.156686828039919e-2
      3.196393060335379e-2 3.236598735549628e-2 3.277310135901218e-2 3.318533622629282e-2
      3.360275636987487e-2 3.402542701250510e-2 3.445341419733129e-2 3.488678479822183e-2
      3.532560653021481e-2 3.576994796009861e-2 3.621987851712572e-2 3.667546850386106e-2
      3.713678910716695e-2 3.760391240932621e-2 3.807691139930516e-2 3.855585998415836e-2
      3.904083300057659e-2 3.953190622658034e-2 4.002915639336029e-2 4.053266119726661e-2
      4.104249931194940e-2 4.155875040065128e-2 4.208149512865520e-2 4.261081517588844e-2
      4.314679324968525e-2 4.368951309771020e-2 4.423905952104366e-2 4.479551838743236e-2
      4.535897664470628e-2 4.592952233436445e-2 4.650724460533175e-2 4.709223372788834e-2
      4.768458110777482e-2 4.828437930047444e-2 4.889172202567503e-2 4.950670418191315e-2
      5.012942186140188e-2 5.075997236504555e-2 5.139845421764322e-2 5.204496718328332e-2
      5.269961228093216e-2 5.336249180021810e-2 5.403370931741466e-2 5.471336971162449e-2
      5.540157918116698e-2 5.609844526017187e-2 5.680407683538188e-2 5.751858416316622e-2
      5.824207888674851e-2 5.897467405365129e-2 5.971648413335982e-2 6.046762503520835e-2
      6.122821412649097e-2 6.199837025080064e-2 6.277821374659865e-2 6.356786646601780e-2
      6.436745179390212e-2 6.517709466708586e-2 6.599692159391513e-2 6.682706067401525e-2
      6.766764161830635e-2 6.851879576927123e-2 6.938065612147764e-2 7.025335734235910e-2
      7.113703579325684e-2 7.203182955072664e-2 7.293787842811371e-2 7.385532399739843e-2
      7.478430961131757e-2 7.572498042576335e-2 7.667748342246423e-2 7.764196743195151e-2
      7.861858315681383e-2 7.960748319524518e-2 8.060882206488845e-2 8.162275622697921e-2
      8.264944411079329e-2 8.368904613840128e-2 8.474172474973509e-2 8.580764442796943e-2
      8.688697172522257e-2 8.797987528858076e-2 8.908652588644925e-2 9.020709643523544e-2
      9.134176202636739e-2 9.249069995365213e-2 9.365408974097853e-2 9.483211317036766e-2
      9.602495431037712e-2 9.723279954486184e-2 9.845583760209703e-2 9.969425958426758e-2
      1.009482589973277e-1 1.022180317812371e-1 1.035037763405764e-1 1.048056935755489e-1
      1.061239869133715e-1 1.074588623400603e-1 1.088105284326165e-1 1.101791963916170e-1
      1.115650800742149e-1 1.129683960275554e-1 1.143893635226112e-1 1.158282045884444e-1
      1.172851440468989e-1 1.187604095477291e-1 1.202542316041711e-1 1.217668436289604e-1
      1.232984819708033e-1 1.248493859513069e-1 1.264197979023732e-1 1.280099632040650e-1
      1.296201303229458e-1 1.312505508509037e-1 1.329014795444634e-1 1.345731743645919e-1
      1.362658965170063e-1 1.379799104929866e-1 1.397154841107037e-1 1.414728885570665e-1
      1.432523984300951e-1 1.450542917818277e-1 1.468788501617665e-1 1.487263586608704e-1
      1.505971059561011e-1 1.524913843555296e-1 1.544094898440100e-1 1.563517221294269e-1
      1.583183846895267e-1 1.603097848193354e-1 1.623262336791749e-1 1.643680463432821e-1
      1.664355418490398e-1 1.685290432468272e-1 1.706488776504970e-1 1.727953762884873e-1
      1.749688745555777e-1 1.771697120652944e-1 1.793982327029759e-1 1.816547846795057e-1
      1.839397205857212e-1 1.862533974475065e-1 1.885961767815785e-1 1.909684246519745e-1
      1.933705117272508e-1 1.958028133383995e-1 1.982657095374965e-1 2.007595851570834e-1
      2.032848298702997e-1 2.058418382517694e-1 2.084310098392542e-1 2.110527491960828e-1
      2.137074659743634e-1 2.163955749789937e-1 2.191174962324748e-1 2.218736550405399e-1
      2.246644820586108e-1 2.274904133590868e-1 2.303518904994831e-1 2.332493605914244e-1
      2.361832763705074e-1 2.391540962670421e-1 2.421622844776813e-1 2.452083110379532e-1
      2.482926518957049e-1 2.514157889854705e-1 2.545782103037746e-1 2.577804099853822e-1
      2.610228883805082e-1 2.643061521329988e-1 2.676307142594951e-1 2.709970942295936e-1
      2.744058180470133e-1 2.778574183317859e-1 2.813524344034781e-1 2.848914123654615e-1
      2.884749051902434e-1 2.921034728058680e-1 2.957776821834077e-1 2.994981074255529e-1
      3.032653298563167e-1 3.070799381118690e-1 3.109425282325102e-1 3.148537037558052e-1
      3.188140758108869e-1 3.228242632139460e-1 3.268848925649237e-1 3.309965983454171e-1
      3.351600230178198e-1 3.393758171257074e-1 3.436446393954861e-1 3.479671568393210e-1
      3.523440448593568e-1 3.567759873532514e-1 3.612636768210363e-1 3.658078144733209e-1
      3.704091103408590e-1 3.750682833854910e-1 3.797860616124844e-1 3.845631821842855e-1
      3.894003915357025e-1 3.942984454905384e-1 3.992581093796886e-1 4.042801581607264e-1
      4.093653765389912e-1 4.145145590902002e-1 4.197285103846037e-1 4.250080451126992e-1
      4.303539882125291e-1 4.357671749985792e-1 4.412484512922977e-1 4.467986735542579e-1
      4.524187090179799e-1 4.581094358254391e-1 4.638717431642768e-1 4.697065314067379e-1
      4.756147122503570e-1 4.815972088604111e-1 4.876549560141666e-1 4.937889002469411e-1
      5.000000000000000e-1 5.062892257703173e-1 5.126575602622147e-1 5.191059985409128e-1
      5.256355481880124e-1 5.322472294589296e-1 5.389420754423159e-1 5.457211322214760e-1
      5.525854590378241e-1 5.595361284563907e-1 5.665742265334131e-1 5.737008529860362e-1
      5.809171213641418e-1 5.882241592243456e-1 5.956231083061795e-1 6.031151247104903e-1
      6.107013790800851e-1 6.183830567826426e-1 6.261613580959326e-1 6.340374983953602e-1
      6.420127083438707e-1 6.500882340842456e-1 6.582653374338109e-1 6.665452960816017e-1
      6.749294037880020e-1 6.834189705868981e-1 6.920153229903758e-1 7.007198041959869e-1
      7.095337742966290e-1 7.184586104930627e-1 7.274957073091006e-1 7.366464768095079e-1
      7.459123488206354e-1 7.552947711538367e-1 7.647952098316900e-1 7.744151493170666e-1
      7.841560927450846e-1 7.940195621579720e-1 8.040070987428919e-1 8.141202630727555e-1
      8.243606353500642e-1 8.347298156538216e-1 8.452294241895459e-1 8.558611015424326e-1
      8.666265089336981e-1 8.775273284801493e-1 8.885652634570194e-1 8.997420385641046e-1
      9.110594001952549e-1 9.225191167112506e-1 9.341229787161112e-1 9.458727993368850e-1
      9.577704145069482e-1 9.698176832528775e-1 9.820164879849242e-1 9.943687347911460e-1
      1.006876353735239e0 1.019541299158108e0 1.032365549983244e0 1.045351110025929e0
      1.058500008306337e0 1.071814299366580e0 1.085296063591721e0 1.098947407534852e0
      1.112770464246235e0 1.126767393606604e0 1.140940382664652e0 1.155291645978752e0
      1.169823425962996e0 1.184537993237571e0 1.199437646983549e0 1.214524715302144e0
      1.229801555578475e0 1.245270554849916e0 1.260934130179075e0 1.276794729031463e0
      1.292854829657923e0 1.309116941481851e0 1.325583605491304e0 1.342257394636036e0
      1.359140914229523e0 1.376236802356054e0 1.393547730282926e0 1.411076402877850e0
      1.428825559031583e0 1.446797972085881e0 1.464996450266852e0 1.483423837123734e0
      1.502083011973216e0 1.520976890349333e0 1.540108424459016e0 1.559480603643398e0
      1.579096454844884e0 1.598959043080137e0 1.619071471918982e0 1.639436883969337e0
      1.660058461368276e0 1.680939426279215e0 1.702083041395409e0 1.723492610449739e0
      1.745171478730921e0 1.767123033606237e0 1.789350705050790e0 1.811857966183470e0
      1.834648333809623e0 1.857725368970552e0 1.881092677499957e0 1.904753910587331e0
      1.928712765348487e0 1.952972985403227e0 1.977538361460289e0 2.002412731909665e0
      2.027599983422338e0 2.053104051557606e0 2.078928921378005e0 2.105078628071980e0
      2.131557257584411e0 2.158368947255022e0 2.185517886464878e0 2.213008317290969e0
      2.240844535169032e0 2.269030889564754e0 2.297571784653345e0 2.326471680007734e0
      2.355735091295372e0 2.385366590983801e0 2.415370809055142e0 2.445752433729503e0
      2.476516212197557e0 2.507666951362281e0 2.539209518590041e0 2.571148842471146e0
      2.603489913589925e0 2.636237785304545e0 2.669397574536590e0 2.702974462570583e0
      2.736973695863603e0 2.771400586865012e0 2.806260514846577e0 2.841558926742974e0
      2.877301338002865e0 2.913493333450740e0 2.950140568159509e0 2.987248768334161e0
      3.024823732206475e0 3.062871330940993e0 3.101397509552436e0 3.140408287834583e0
      3.179909761300915e0 3.219908102137032e0 3.260409560165056e0 3.301420463820217e0
      3.342947221139636e0 3.384996320763637e0 3.427574332949591e0 3.470687910598518e0
      3.514343790294650e0 3.558548793357998e0 3.603309826910233e0 3.648633884953918e0
      3.694528049465325e0 3.740999491501043e0 3.788055472318424e0 3.835703344510214e0
      3.883950553153389e0 3.932804636972446e0 3.982273229517390e0 4.032364060356437e0
      4.083084956283823e0 4.134443842542737e0 4.186448744063632e0 4.239107786718191e0
      4.292429198588948e0 4.346421311255001e0 4.401092561093806e0 4.456451490599369e0
      4.512506749717065e0 4.569267097195164e0 4.626741401953445e0 4.684938644468968e0
      4.743867918179263e0 4.803538430903256e0 4.863959506279944e0 4.925140585225290e0
      4.987091227407364e0 5.049821112740027e0 5.113340042895505e0 5.177657942835848e0
      5.242784862363785e0 5.308730977693005e0 5.375506593038177e0 5.443122142225075e0
      5.511588190320802e0 5.580915435284682e0 5.651114709639795e0 5.722196982165561e0
      5.794173359611701e0 5.867055088433607e0 5.940853556549698e0 6.015580295120770e0
      6.091246980351737e0 6.167865435316133e0 6.245447631803406e0 6.324005692189611e0
      6.403551891331521e0 6.484098658484567e0 6.565658579245015e0 6.648244397516394e0
      6.731869017500855e0 6.816545505715382e0 6.902287093033547e0 6.989107176752824e0
      7.077019322687904e0 7.166037267290474e0 7.256174919795463e0 7.347446364394471e0
      7.439865862436425e0 7.533447854655896e0 7.628206963429590e0 7.724157995061013e0
      7.821315942094086e0 7.919695985655716e0 8.019313497827838e0 8.120184044049429e0
      8.222323385548531e0 8.325747481805072e0 8.430472493044524e0 8.536514782762930e0
      8.643890920283832e0 8.752617683347145e0 8.862712060730821e0 8.974191254905328e0
      9.087072684721534e0 9.201373988132536e0 9.317113024949508e0 9.434307879632442e0
      9.552976864115834e0 9.673138520669909e0 9.794811624798010e0 9.918015188170166e0
      1.004276846159383e1 1.016909093802181e1 1.029700235559802e1 1.042652270074172e1
      1.055767221127031e1 1.069047137956167e1 1.082494095575604e1 1.096110195099824e1
      1.109897564072083e1 1.123858356796831e1 1.137994754676336e1 1.152308966551530e1
      1.166803229047136e1 1.181479806921162e1 1.196340993418758e1 1.211389110630549e1
      1.226626509855469e1 1.242055571968143e1 1.257678707790920e1 1.273498358470555e1
      1.289516995859653e1 1.305737122902900e1 1.322161274028140e1 1.338792015542408e1
      1.355631946032895e1 1.372683696773005e1 1.389949932133485e1 1.407433349998733e1
      1.425136682188366e1 1.443062694884052e1 1.461214189061747e1 1.479594000929349e1
      1.498205002369851e1 1.517050101390098e1 1.536132242575147e1 1.555454407548383e1
      1.575019615437398e1 1.594830923345725e1 1.614891426830536e1 1.635204260386309e1
      1.655772597934616e1 1.676599653320048e1 1.697688680812378e1 1.719042975615062e1
      1.740665874380102e1 1.762560755729427e1 1.784731040782796e1 1.807180193692347e1
      1.829911722183902e1 1.852929178105030e1 1.876236157980050e1 1.899836303571990e1
      1.923733302451607e1 1.947930888573601e1 1.972432842860028e1 1.997242993791097e1
      2.022365218003372e1 2.047803440895490e1 2.073561637241541e1 2.099643831812100e1
      2.126054100003139e1 2.152796568472798e1 2.179875415786176e1 2.207294873068264e1
      2.235059224665043e1 2.263172808812938e1 2.291640018316675e1 2.320465301235649e1
      2.349653161578968e1 2.379208160009185e1 2.409134914554941e1 2.439438101332523e1
      2.470122455276510e1 2.501192770879641e1 2.532653902941933e1 2.564510767329285e1
      2.596768341741575e1 2.629431666490423e1 2.662505845286785e1 2.695996046038379e1
      2.729907501657212e1 2.764245510877224e1 2.799015439082208e1 2.834222719144194e1
      2.869872852272312e1 2.905971408872400e1 2.942524029417373e1 2.979536425328550e1
      3.017014379868103e1 3.054963749042669e1 3.093390462518395e1 3.132300524547446e1
      3.171700014906167e1 3.211595089845098e1 3.251991983050851e1 3.292897006620185e1
      3.334316552046261e1 3.376257091217308e1 3.418725177427911e1 3.461727446402932e1
      3.505270617334393e1 3.549361493931347e1 3.594006965482954e1 3.639214007934987e1
      3.684989684979792e1 3.731341149160046e1 3.778275642986334e1 3.825800500068794e1
      3.873923146263049e1 3.922651100830458e1 3.971991977613067e1 4.021953486223266e1
      4.072543433248407e1 4.123769723470656e1 4.175640361102064e1 4.228163451035300e1
      4.281347200110033e1 4.335199918395245e1 4.389730020487746e1 4.444946026826917e1
      4.500856565026091e1 4.557470371220623e1 4.614796291432895e1 4.672843282954587e1
      4.731620415746208e1 4.791136873854344e1 4.851401956846672e1 4.912425081265003e1
      4.974215782096698e1 5.036783714264456e1 5.100138654134985e1 5.164290501046543e1
      5.229249278855711e1 5.295025137503702e1 5.361628354602228e1 5.429069337039480e1
      5.497358622606181e1 5.566506881642118e1 5.636524918703467e1 5.707423674250952e1
      5.779214226359383e1 5.851907792448596e1 5.925515731036167e1 6.000049543512278e1
      6.075520875936749e1 6.151941520858827e1 6.229323419159773e1 6.307678661918609e1
      6.387019492301452e1 6.467358307474449e1 6.548707660540931e1 6.631080262502834e1
      6.714488984246777e1 6.798946858555256e1 6.884467082142937e1 6.971063017718759e1
      7.058748196073850e1 7.147536318195701e1 7.237441257409057e1 7.328477061543559e1
      7.420657955128831e1 7.513998341617050e1 7.608512805633481e1 7.704216115255446e1
      7.801123224319756e1 7.899249274759374e1 7.998609598969335e1 8.099219722202418e1
      8.201095364995100e1 8.304252445623806e1 8.408707082592272e1 8.514475597150058e1
      8.621574515842717e1 8.730020573094222e1 8.839830713821623e1 8.951022096082834e1
      9.063612093757568e1 9.177618299261999e1 9.293058526297717e1 9.409950812635024e1
      9.528313422931500e1 9.648164851585831e1 9.769523825627548e1 9.892409307643288e1
      1.001684049873959e2
      </PP_R>
    <PP_RAB>
      5.699262284715726e-6 5.770950179181390e-6 5.843539796353639e-6 5.917042478507836e-6
      5.991469710587626e-6 6.066833121999431e-6 6.143144488429616e-6 6.220415733684446e-6
      6.298658931553191e-6 6.377886307694716e-6 6.458110241547732e-6 6.539343268265116e-6
      6.621598080672563e-6 6.704887531251854e-6 6.789224634149112e-6 6.874622567208239e-6
      6.961094674030020e-6 7.048654466057078e-6 7.137315624685047e-6 7.227092003400361e-6
      7.317997629944839e-6 7.410046708507582e-6 7.503253621944380e-6 7.597632934025092e-6
      7.693199391709256e-6 7.789967927450309e-6 7.887953661528842e-6 7.987171904415152e-6
      8.087638159161550e-6 8.189368123824750e-6 8.292377693918697e-6 8.396682964898293e-6
      8.502300234674337e-6 8.609246006160108e-6 8.717536989849993e-6 8.827190106430510e-6
      8.938222489424216e-6 9.050651487866848e-6 9.164494669018145e-6 9.279769821106793e-6
      9.396494956109827e-6 9.514688312567074e-6 9.634368358430940e-6 9.755553793952078e-6
      9.878263554601357e-6 1.000251681402853e-5 1.012833298705817e-5 1.025573173272329e-5
      1.038473295733709e-5 1.051535681760338e-5 1.064762372376609e-5 1.078155434279839e-5
      1.091716960163200e-5 1.105449069042701e-5 1.119353906588294e-5 1.133433645459134e-5
      1.147690485643067e-5 1.162126654800376e-5 1.176744408611861e-5 1.191546031131298e-5
      1.206533835142318e-5 1.221710162519792e-5 1.237077384595748e-5 1.252637902529900e-5
      1.268394147684834e-5 1.284348582005912e-5 1.300503698405956e-5 1.316862021154771e-5
      1.333426106273568e-5 1.350198541934347e-5 1.367181948864303e-5 1.384378980755323e-5
      1.401792324678627e-5 1.419424701504629e-5 1.437278866328085e-5 1.455357608898571e-5
      1.473663754056396e-5 1.492200162173983e-5 1.510969729602815e-5 1.529975389125990e-5
      1.549220110416474e-5 1.568706900501124e-5 1.588438804230537e-5 1.608418904754813e-5
      1.628650324005312e-5 1.649136223182451e-5 1.669879803249657e-5 1.690884305433517e-5
      1.712153011730231e-5 1.733689245418431e-5 1.755496371578445e-5 1.777577797618104e-5
      1.799936973805152e-5 1.822577393806355e-5 1.845502595233405e-5 1.868716160195662e-5
      1.892221715859885e-5 1.916022935016965e-5 1.940123536655818e-5 1.964527286544488e-5
      1.989237997818542e-5 2.014259531576891e-5 2.039595797485093e-5 2.065250754386239e-5
      2.091228410919545e-5 2.117532826146695e-5 2.144168110186084e-5 2.171138424855034e-5
      2.198447984320080e-5 2.226101055755456e-5 2.254101960009832e-5 2.282455072281464e-5
      2.311164822801833e-5 2.340235697527863e-5 2.369672238842880e-5 2.399479046266352e-5
      2.429660777172582e-5 2.460222147518427e-5 2.491167932580181e-5 2.522502967699724e-5
      2.554232149040041e-5 2.586360434350273e-5 2.618892843740362e-5 2.651834460465463e-5
      2.685190431720212e-5 2.718965969442981e-5 2.753166351130254e-5 2.787796920661252e-5
      2.822863089132917e-5 2.858370335705421e-5 2.894324208458279e-5 2.930730325257257e-5
      2.967594374632174e-5 3.004922116665741e-5 3.042719383893602e-5 3.080992082215658e-5
      3.119746191818886e-5 3.158987768111759e-5 3.198722942670407e-5 3.238957924196703e-5
      3.279698999488366e-5 3.320952534421298e-5 3.362724974944263e-5 3.405022848086078e-5
      3.447852762975483e-5 3.491221411873812e-5 3.535135571220692e-5 3.579602102692867e-5
      3.624627954276339e-5 3.670220161352033e-5 3.716385847795059e-5 3.763132227087849e-5
      3.810466603447274e-5 3.858396372965938e-5 3.906929024767851e-5 3.956072142178592e-5
      4.005833403910240e-5 4.056220585261179e-5 4.107241559331008e-5 4.158904298250733e-5
      4.211216874428417e-5 4.264187461810518e-5 4.317824337159083e-5 4.372135881345008e-5
      4.427130580657578e-5 4.482817028130437e-5 4.539203924884307e-5 4.596300081486524e-5
      4.654114419327712e-5 4.712655972015798e-5 4.771933886787476e-5 4.831957425937544e-5
      4.892735968266109e-5 4.954279010544060e-5 5.016596168996976e-5 5.079697180807631e-5
      5.143591905637519e-5 5.208290327167381e-5 5.273802554657206e-5 5.340138824525841e-5
      5.407309501950396e-5 5.475325082485893e-5 5.544196193705162e-5 5.613933596859447e-5
      5.684548188559891e-5 5.756051002480087e-5 5.828453211080205e-5 5.901766127352634e-5
      5.976001206589690e-5 6.051170048173558e-5 6.127284397388642e-5 6.204356147256882e-5
      6.282397340395991e-5 6.361420170901168e-5 6.441436986250469e-5 6.522460289234066e-5
      6.604502739907909e-5 6.687577157571830e-5 6.771696522772595e-5 6.856873979332180e-5
      6.943122836401442e-5 7.030456570539791e-5 7.118888827820861e-5 7.208433425964764e-5
      7.299104356497158e-5 7.390915786935386e-5 7.483882063002264e-5 7.578017710867561e-5
      7.673337439417772e-5 7.769856142554435e-5 7.867588901521250e-5 7.966550987260669e-5
      8.066757862799921e-5 8.168225185667175e-5 8.270968810338088e-5 8.375004790713017e-5
      8.480349382625587e-5 8.587019046382590e-5 8.695030449336013e-5 8.804400468487337e-5
      8.915146193124535e-5 9.027284927492424e-5 9.140834193496390e-5 9.255811733440250e-5
      9.372235512798575e-5 9.490123723023716e-5 9.609494784388396e-5 9.730367348863808e-5
      9.852760303034055e-5 9.976692771047263e-5 1.010218411760367e-4 1.022925395098152e-4
      1.035792212610079e-4 1.048820874762560e-4 1.062013417310568e-4 1.075371901615712e-4
      1.088898414968345e-4 1.102595070913698e-4 1.116464009582127e-4 1.130507398023520e-4
      1.144727430545886e-4 1.159126329058243e-4 1.173706343417775e-4 1.188469751781391e-4
      1.203418860961683e-4 1.218556006787375e-4 1.233883554468299e-4 1.249403898964965e-4
      1.265119465362774e-4 1.281032709250954e-4 1.297146117106234e-4 1.313462206681377e-4
      1.329983527398573e-4 1.346712660747798e-4 1.363652220690173e-4 1.380804854066403e-4
      1.398173241010350e-4 1.415760095367811e-4 1.433568165120558e-4 1.451600232815724e-4
      1.469859116000569e-4 1.488347667662742e-4 1.507068776676055e-4 1.526025368251877e-4
      1.545220404396213e-4 1.564656884372510e-4 1.584337845170309e-4 1.604266361979777e-4