<UPF version="2.0.1">
  <PP_INFO>
Generated using "atomic" code by A. Dal Corso  v.6.2.2
Author: ADC
Generation date:  3May2018
Pseudopotential type: PAW
Element: Ba
Functional:  SLA  PZ   NOGX NOGC
    Suggested minimum cutoff for wavefunctions:  37. Ry
    Suggested minimum cutoff for charge density: 177. Ry
    The Pseudo was generated with a Scalar-Relativistic Calculation
    Local Potential by smoothing AE potential with Bessel fncs, cutoff radius:   2.0000
    Pseudopotential contains additional information for GIPAW reconstruction.
    Valence configuration:
    nl pn  l   occ       Rcut    Rcut US       E pseu
    5S  1  0  2.00      1.400      1.900    -2.484220
    6S  2  0  2.00      1.400      1.900    -0.246308
    5P  2  1  6.00      1.600      2.100    -1.381994
    Generation configuration:
    5S  1  0  2.00      1.400      1.900    -2.484214
    6S  2  0  2.00      1.400      1.900    -0.246312
    6S  2  0  0.00      1.400      1.900     6.000000
    5P  2  1  6.00      1.600      2.100    -1.381995
    6P  3  1  0.00      1.600      2.100     6.000000
    5D  3  2  0.00      1.500      2.100     0.300000
    5D  3  2  0.00      1.500      2.100     4.050000
    Pseudization used: troullier-martins

    <PP_INPUTFILE>
 &amp;input
   title='Ba',
   zed=56.,
   rel=1,
   config='[Xe] 6s2 6p0 5d-1',
   iswitch=3,
   dft='LDA'
 /
 &amp;inputp
   lpaw=.true.,
   use_xsd=.FALSE.,
   pseudotype=3,
   file_pseudopw='Ba.pz-spn-kjpaw_psl.1.0.0.UPF',
   author='ADC',
   lloc=-1,
   rcloc=2.0,
   which_augfun='PSQ',
   rmatch_augfun_nc=.true.,
   nlcc=.true.,
   new_core_ps=.true.,
   rcore=1.6,
   tm=.true.
 /
7
5S  1  0  2.00  0.00  1.40  1.90  0.0
6S  2  0  2.00  0.00  1.40  1.90  0.0
6S  2  0  0.00  6.00  1.40  1.90  0.0
5P  2  1  6.00  0.00  1.60  2.10  0.0
6P  3  1  0.00  6.00  1.60  2.10  0.0
5D  3  2  0.00  0.30  1.50  2.10  0.0
5D  3  2  0.00  4.05  1.50  2.10  0.0
</PP_INPUTFILE>
  </PP_INFO>
  <!--
 END OF HUMAN READABLE SECTION 
-->
  <PP_HEADER generated="Generated using &quot;atomic&quot; code by A. Dal Corso  v.6.2.2" author="ADC" date=" 3May2018" comment="" element="Ba" pseudo_type="PAW" relativistic="scalar" is_ultrasoft="true" is_paw="true" is_coulomb="false" has_so="false" has_wfc="true" has_gipaw="true" paw_as_gipaw="true" core_correction="true" functional=" SLA  PZ   NOGX NOGC" z_valence="1.000000000000e1" total_psenergy="-4.234229561008e2" wfc_cutoff="3.749783172466e1" rho_cutoff="1.773783963780e2" l_max="2" l_max_rho="4" l_local="-1" mesh_size="1251" number_of_wfc="3" number_of_proj="7"/>
  <PP_MESH dx="1.250000000000e-2" mesh="1251" xmin="-7.000000000000e0" rmax="1.000000000000e2" zmesh="5.600000000000e1">
    <PP_R>
      1.628360652775922e-5 1.648842908337540e-5 1.669582798958183e-5 1.690583565287954e-5
      1.711848488739321e-5 1.733380891999837e-5 1.755184139551319e-5 1.777261638195555e-5
      1.799616837586626e-5 1.822253230769919e-5 1.845174354727923e-5 1.868383790932890e-5
      1.891885165906447e-5 1.915682151786244e-5 1.939778466899746e-5 1.964177876345211e-5
      1.988884192580006e-5 2.013901276016307e-5 2.039233035624299e-5 2.064883429542960e-5
      2.090856465698526e-5 2.117156202430737e-5 2.143786749126966e-5 2.170752266864312e-5
      2.198056969059787e-5 2.225705122128660e-5 2.253701046151097e-5 2.282049115547187e-5
      2.310753759760443e-5 2.339819463949929e-5 2.369250769691056e-5 2.399052275685226e-5
      2.429228638478381e-5 2.459784573188602e-5 2.490724854242855e-5 2.522054316123002e-5
      2.553777854121204e-5 2.585900425104814e-5 2.618427048290899e-5 2.651362806030513e-5
      2.684712844602808e-5 2.718482375019163e-5 2.752676673837411e-5 2.787301083986308e-5
      2.822361015600388e-5 2.857861946865293e-5 2.893809424873762e-5 2.930209066492368e-5
      2.967066559239168e-5 3.004387662172395e-5 3.042178206790310e-5 3.080444097942397e-5
      3.119191314751999e-5 3.158425911550572e-5 3.198154018823696e-5 3.238381844168956e-5
      3.279115673265906e-5 3.320361870858216e-5 3.362126881748174e-5 3.404417231803707e-5
      3.447239528978052e-5 3.490600464342263e-5 3.534506813130708e-5 3.578965435799712e-5
      3.623983279099525e-5 3.669567377159748e-5 3.715724852588446e-5 3.762462917585061e-5
      3.809788875067336e-5 3.857710119812419e-5 3.906234139612295e-5 3.955368516443780e-5
      4.005120927653219e-5 4.055499147156083e-5 4.106511046651670e-5 4.158164596853059e-5
      4.210467868732559e-5 4.263429034782809e-5 4.317056370293755e-5 4.371358254645684e-5
      4.426343172618497e-5 4.482019715717497e-5 4.538396583515818e-5 4.595482585013750e-5
      4.653286640015176e-5 4.711817780521289e-5 4.771085152141876e-5 4.831098015524335e-5
      4.891865747800656e-5 4.953397844052658e-5 5.015703918795557e-5 5.078793707480300e-5
      5.142677068014720e-5 5.207363982303871e-5 5.272864557809726e-5 5.339189029130464e-5
      5.406347759599671e-5 5.474351242905612e-5 5.543210104730910e-5 5.612935104412822e-5
      5.683537136624405e-5 5.755027233076833e-5 5.827416564243121e-5 5.900716441103539e-5
      5.974938316912985e-5 6.050093788990556e-5 6.126194600531667e-5 6.203252642442952e-5
      6.281279955200228e-5 6.360288730729874e-5 6.440291314313805e-5 6.521300206518471e-5
      6.603328065148094e-5 6.686387707222464e-5 6.770492110979656e-5 6.855654417903862e-5
      6.941887934778805e-5 7.029206135766934e-5 7.117622664514802e-5 7.207151336284925e-5
      7.297806140114405e-5 7.389601241000778e-5 7.482550982115322e-5 7.576669887044179e-5
      7.671972662057749e-5 7.768474198408515e-5 7.866189574657866e-5 7.965134059032146e-5
      8.065323111808331e-5 8.166772387729772e-5 8.269497738452225e-5 8.373515215020733e-5
      8.478841070377639e-5 8.585491761902118e-5 8.693483953981719e-5 8.802834520616164e-5
      8.913560548053958e-5 9.025679337462167e-5 9.139208407629734e-5 9.254165497704864e-5
      9.370568569966755e-5 9.488435812632279e-5 9.607785642697896e-5 9.728636708817366e-5
      9.851007894215662e-5 9.974918319639464e-5 1.010038734634484e-4 1.022743457912247e-4
      1.035607986936097e-4 1.048634331814867e-4 1.061824527941446e-4 1.075180636310814e-4
      1.088704743842078e-4 1.102398963704554e-4 1.116265435647957e-4 1.130306326336740e-4
      1.144523829688640e-4 1.158920167217480e-4 1.173497588380288e-4 1.188258370928781e-4
      1.203204821265262e-4 1.218339274803005e-4 1.233664096331166e-4 1.249181680384288e-4
      1.264894451616451e-4 1.280804865180125e-4 1.296915407109802e-4 1.313228594710435e-4
      1.329746976950775e-4 1.346473134861657e-4 1.363409681939279e-4 1.380559264553584e-4
      1.397924562361745e-4 1.415508288726874e-4 1.433313191141993e-4 1.451342051659323e-4
      1.469597687325005e-4 1.488082950619252e-4 1.506800729902059e-4 1.525753949864527e-4
      1.544945571985827e-4 1.564378594995969e-4 1.584056055344332e-4 1.603981027674128e-4
      1.624156625302825e-4 1.644586000708596e-4 1.665272346022916e-4 1.686218893529323e-4
      1.707428916168483e-4 1.728905728049588e-4 1.750652684968184e-4 1.772673184930538e-4
      1.794970668684569e-4 1.817548620257476e-4 1.840410567500134e-4 1.863560082638305e-4
      1.887000782830831e-4 1.910736330734808e-4 1.934770435077884e-4 1.959106851237766e-4
      1.983749381828984e-4 2.008701877297083e-4 2.033968236520245e-4 2.059552407418504e-4
      2.085458387570617e-4 2.111690224838682e-4 2.138252018000647e-4 2.165147917390732e-4
      2.192382125547935e-4 2.219958897872695e-4 2.247882543291785e-4 2.276157424931620e-4
      2.304787960799977e-4 2.333778624476335e-4 2.363133945810882e-4 2.392858511632290e-4
      2.422956966464453e-4 2.453434013252168e-4 2.484294414096003e-4 2.515542990996381e-4
      2.547184626607010e-4 2.579224264997836e-4 2.611666912427540e-4 2.644517638125786e-4
      2.677781575085307e-4 2.711463920863919e-4 2.745569938396685e-4 2.780104956818231e-4
      2.815074372295445e-4 2.850483648870647e-4 2.886338319315335e-4 2.922643985994720e-4
      2.959406321743081e-4 2.996631070750171e-4 3.034324049458765e-4 3.072491147473461e-4
      3.111138328480985e-4 3.150271631181993e-4 3.189897170234649e-4 3.230021137210055e-4
      3.270649801559675e-4 3.311789511594980e-4 3.353446695479358e-4 3.395627862232546e-4
      3.438339602747665e-4 3.481588590821071e-4 3.525381584195139e-4 3.569725425614184e-4
      3.614627043893641e-4 3.660093455002725e-4 3.706131763160669e-4 3.752749161946792e-4
      3.799952935424495e-4 3.847750459279423e-4 3.896149201971923e-4 3.945156725904008e-4
      3.994780688601000e-4 4.045028843908030e-4 4.095909043201596e-4 4.147429236616352e-4
      4.199597474287342e-4 4.252421907607835e-4 4.305910790503012e-4 4.360072480719650e-4
      4.414915441132035e-4 4.470448241064312e-4 4.526679557629454e-4 4.583618177085078e-4
      4.641272996206313e-4 4.699653023675948e-4 4.758767381492051e-4 4.818625306393301e-4
      4.879236151302244e-4 4.940609386786710e-4 5.002754602539612e-4 5.065681508877339e-4
      5.129399938257041e-4 5.193919846812943e-4 5.259251315912017e-4 5.325404553729235e-4
      5.392389896842590e-4 5.460217811848231e-4 5.528898896995874e-4 5.598443883844801e-4
      5.668863638940706e-4 5.740169165513585e-4 5.812371605197042e-4 5.885482239769173e-4
      5.959512492915372e-4 6.034473932013313e-4 6.110378269940365e-4 6.187237366903754e-4
      6.265063232293755e-4 6.343868026560172e-4 6.423664063112440e-4 6.504463810243612e-4
      6.586279893078572e-4 6.669125095546718e-4 6.753012362379480e-4 6.837954801132975e-4
      6.923965684236073e-4 7.011058451064254e-4 7.099246710039520e-4 7.188544240756761e-4
      7.278964996136827e-4 7.370523104606706e-4 7.463232872307128e-4 7.557108785327914e-4
      7.652165511971463e-4 7.748417905044711e-4 7.845881004179898e-4 7.944570038184560e-4
      8.044500427421040e-4 8.145687786215966e-4 8.248147925300021e-4 8.351896854278390e-4
      8.456950784132310e-4 8.563326129752047e-4 8.671039512501778e-4 8.780107762816712e-4
      8.890547922832848e-4 9.002377249049889e-4 9.115613215027574e-4 9.230273514115968e-4
      9.346376062220067e-4 9.463939000599250e-4 9.582980698701810e-4 9.703519757035266e-4
      9.825575010072725e-4 9.949165529195787e-4 1.007431062567453e-3 1.020102985368487e-3
      1.032934301336401e-3 1.045927015390420e-3 1.059083157668549e-3 1.072404783844785e-3
      1.085893975450321e-3 1.099552840198790e-3 1.113383512315597e-3 1.127388152871400e-3
      1.141568950119778e-3 1.155928119839153e-3 1.170467905679006e-3 1.185190579510458e-3
      1.200098441781246e-3 1.215193821875182e-3 1.230479078476117e-3 1.245956599936494e-3
      1.261628804650529e-3 1.277498141432093e-3 1.293567089897347e-3 1.309838160852181e-3
      1.326313896684534e-3 1.342996871761651e-3 1.359889692832327e-3 1.376994999434227e-3
      1.394315464306306e-3 1.411853793806441e-3 1.429612728334296e-3 1.447595042759522e-3
      1.465803546855335e-3 1.484241085737546e-3 1.502910540309114e-3 1.521814827710301e-3
      1.540956901774473e-3 1.560339753489650e-3 1.579966411465845e-3 1.599839942408298e-3
      1.619963451596653e-3 1.640340083370159e-3 1.660973021618991e-3 1.681865490281727e-3
      1.703020753849101e-3 1.724442117874086e-3 1.746132929488394e-3 1.768096577925470e-3
      1.790336495050067e-3 1.812856155894483e-3 1.835659079201544e-3 1.858748827974404e-3
      1.882129010033291e-3 1.905803278579218e-3 1.929775332764809e-3 1.954048918272303e-3
      1.978627827898821e-3 2.003515902148995e-3 2.028717029835067e-3 2.054235148684508e-3
      2.080074245955304e-3 2.106238359058975e-3 2.132731576191422e-3 2.159558036971727e-3
      2.186721933088963e-3 2.214227508957166e-3 2.242079062378524e-3 2.270280945214920e-3
      2.298837564067933e-3 2.327753380967352e-3 2.357032914068398e-3 2.386680738357688e-3
      2.416701486368084e-3 2.447099848902544e-3 2.477880575767059e-3 2.509048476512825e-3
      2.540608421187744e-3 2.572565341097380e-3 2.604924229575489e-3 2.637690142764230e-3
      2.670868200404199e-3 2.704463586634405e-3 2.738481550802294e-3 2.772927408283982e-3
      2.807806541314780e-3 2.843124399830185e-3 2.878886502317445e-3 2.915098436677828e-3
      2.951765861099760e-3 2.988894504942903e-3 3.026490169633396e-3 3.064558729570337e-3
      3.103106133043664e-3 3.142138403163599e-3 3.181661638801759e-3 3.221682015544122e-3
      3.262205786655978e-3 3.303239284059005e-3 3.344788919320662e-3 3.386861184655988e-3
      3.429462653942040e-3 3.472599983745065e-3 3.516279914360608e-3 3.560509270866699e-3
      3.605294964190276e-3 3.650643992187038e-3 3.696563440734871e-3 3.743060484841032e-3
      3.790142389763269e-3 3.837816512145012e-3 3.886090301164875e-3 3.934971299700607e-3
      3.984467145507675e-3 4.034585572412695e-3 4.085334411521830e-3 4.136721592444444e-3
      4.188755144532104e-3 4.241443198133181e-3 4.294793985863254e-3 4.348815843891442e-3
      4.403517213242975e-3 4.458906641118102e-3 4.514992782227615e-3 4.571784400145180e-3
      4.629290368676635e-3 4.687519673246561e-3 4.746481412302265e-3 4.806184798735427e-3
      4.866639161321656e-3 4.927853946178093e-3 4.989838718239419e-3 5.052603162752376e-3
      5.116157086789109e-3 5.180510420779560e-3 5.245673220063088e-3 5.311655666459655e-3
      5.378468069860754e-3 5.446120869840345e-3 5.514624637286070e-3 5.583990076050962e-3
      5.654228024625953e-3 5.725349457833408e-3 5.797365488541960e-3 5.870287369402932e-3
      5.944126494608565e-3 6.018894401672402e-3 6.094602773232033e-3 6.171263438874544e-3
      6.248888376984918e-3 6.327489716617658e-3 6.407079739391996e-3 6.487670881410921e-3
      6.569275735204327e-3 6.651907051696661e-3 6.735577742199234e-3 6.820300880427663e-3
      6.906089704544669e-3 6.992957619228553e-3 7.080918197767732e-3 7.169985184181550e-3
      7.260172495367845e-3 7.351494223277478e-3 7.443964637116220e-3 7.537598185574384e-3
      7.632409499084407e-3 7.728413392106920e-3 7.825624865445526e-3 7.924059108590711e-3
      8.023731502093245e-3 8.124657619967389e-3 8.226853232124395e-3 8.330334306836583e-3
      8.435117013232405e-3 8.541217723822934e-3 8.648653017060047e-3 8.757439679926900e-3
      8.867594710560891e-3 8.979135320909659e-3 9.092078939420521e-3 9.206443213763647e-3
      9.322246013589577e-3 9.439505433321388e-3 9.558239794981969e-3 9.678467651056915e-3
      9.800207787393333e-3 9.923479226135207e-3 1.004830122869564e-2 1.017469329876648e-2
      1.030267518536583e-2 1.043226688592386e-2 1.056348864940742e-2 1.069636097948403e-2
      1.083090463772560e-2 1.096714064685246e-2 1.110509029401822e-2 1.124477513413590e-2
      1.138621699324596e-2 1.152943797192664e-2 1.167446044874727e-2 1.182130708376490e-2
      1.197000082206499e-2 1.212056489734670e-2 1.227302283555308e-2 1.242739845854718e-2
      1.258371588783417e-2 1.274199954833041e-2 1.290227417217987e-2 1.306456480261860e-2
      1.322889679788782e-2 1.339529583519611e-2 1.356378791473159e-2 1.373439936372448e-2
      1.390715684056080e-2 1.408208733894780e-2 1.425921819213174e-2 1.443857707716880e-2
      1.462019201924969e-2 1.480409139607858e-2 1.499030394230727e-2 1.517885875402497e-2
      1.536978529330461e-2 1.556311339280640e-2 1.575887326043920e-2 1.595709548408064e-2
      1.615781103635643e-2 1.636105127947997e-2 1.656684797015274e-2 1.677523326452635e-2
      1.698623972322704e-2 1.719990031644325e-2 1.741624842907738e-2 1.763531786596218e-2
      1.785714285714286e-2 1.808175806322562e-2 1.830919858079338e-2 1.853949994788974e-2
      1.877269814957187e-2 1.900882962353321e-2 1.924793126579699e-2 1.949004043648129e-2
      1.973519496563658e-2 1.998343315915681e-2 2.023479380476476e-2 2.048931617807272e-2
      2.074704004871935e-2 2.100800568658377e-2 2.127225386807784e-2 2.153982588251751e-2
      2.181076353857447e-2 2.208510917080866e-2 2.236290564628330e-2 2.264419637126286e-2
      2.292902529799538e-2 2.321743693158020e-2 2.350947633692182e-2 2.380518914577149e-2
      2.410462156385722e-2 2.440782037810351e-2 2.471483296394200e-2 2.502570729271381e-2
      2.534049193916532e-2 2.565923608903795e-2 2.598198954675360e-2 2.630880274319671e-2
      2.663972674359412e-2 2.697481325549417e-2 2.731411463684607e-2 2.765768390418095e-2
      2.800557474089588e-2 2.835784150564185e-2 2.871453924081757e-2 2.907572368116984e-2
      2.944145126250229e-2 2.981177913049363e-2 3.018676514962664e-2 3.056646791222974e-2
      3.095094674763208e-2 3.134026173143390e-2 3.173447369489355e-2 3.213364423443231e-2
      3.253783572125911e-2 3.294711131111610e-2 3.336153495414683e-2 3.378117140488875e-2
      3.420608623239101e-2 3.463634583045991e-2 3.507201742803301e-2 3.551316909968378e-2
      3.595986977625852e-2 3.641218925564671e-2 3.687019821368728e-2 3.733396821521173e-2
      3.780357172522634e-2 3.827908212023500e-2 3.876057369970435e-2 3.924812169767327e-2
      3.974180229450837e-2 4.024169262880729e-2 4.074787080945185e-2 4.126041592781259e-2
      4.177940807010700e-2 4.230492832991323e-2 4.283705882084103e-2 4.337588268936230e-2
      4.392148412780267e-2 4.447394838749701e-2 4.503336179210981e-2 4.559981175112370e-2
      4.617338677349726e-2 4.675417648149467e-2 4.734227162468944e-2 4.793776409414414e-2
      4.854074693676866e-2 4.915131436985906e-2 4.976956179581879e-2 5.039558581706606e-2
      5.102948425112796e-2 5.167135614592430e-2 5.232130179524473e-2 5.297942275441908e-2
      5.364582185618628e-2 5.432060322676190e-2 5.500387230210769e-2 5.569573584440706e-2
      5.639630195874588e-2 5.710568011000490e-2 5.782398113996362e-2 5.855131728461918e-2
      5.928780219172412e-2 6.003355093854340e-2 6.078868004983603e-2 6.155330751606209e-2
      6.232755281181860e-2 6.311153691450845e-2 6.390538232324251e-2 6.470921307798108e-2
      6.552315477891511e-2 6.634733460609114e-2 6.718188133928418e-2 6.802692537811899e-2
      6.888259876244595e-2 6.974903519297239e-2 7.062637005215315e-2 7.151474042534516e-2
      7.241428512222635e-2 7.332514469848592e-2 7.424746147778589e-2 7.518137957399929e-2
      7.612704491372897e-2 7.708460525910796e-2 7.805421023088853e-2 7.903601133182030e-2
      8.003016197032258e-2 8.103681748445549e-2 8.205613516619090e-2 8.308827428599052e-2
      8.413339611769187e-2 8.519166396370718e-2 8.626324318054079e-2 8.734830120462512e-2
      8.844700757848416e-2 8.955953397722434e-2 9.068605423535859e-2 9.182674437396949e-2
      9.298178262821162e-2 9.415134947516233e-2 9.533562766202108e-2 9.653480223466369e-2
      9.774906056655723e-2 9.897859238803617e-2 1.002235898159492e-1 1.014842473836777e-1
      1.027607620715309e-1 1.040533333375264e-1 1.053621631485539e-1 1.066874560119343e-1
      1.080294190073741e-1 1.093882618193212e-1 1.107641967697298e-1 1.121574388512351e-1
      1.135682057607470e-1 1.149967179334654e-1 1.164431985773235e-1 1.179078737078649e-1
      1.193909721835584e-1 1.208927257415584e-1 1.224133690339140e-1 1.239531396642328e-1
      1.255122782248089e-1 1.270910283342142e-1 1.286896366753655e-1 1.303083530340685e-1
      1.319474303380473e-1 1.336071246964658e-1 1.352876954399437e-1 1.369894051610791e-1
      1.387125197554782e-1 1.404573084633016e-1 1.422240439113354e-1 1.440130021555870e-1
      1.458244627244223e-1 1.476587086622406e-1 1.495160265737012e-1 1.513967066685068e-1
      1.533010428067482e-1 1.552293325448215e-1 1.571818771819217e-1 1.591589818071203e-1
      1.611609553470380e-1 1.631881106141130e-1 1.652407643554802e-1 1.673192373024631e-1
      1.694238542206880e-1 1.715549439608306e-1 1.737128395099980e-1 1.758978780437604e-1
      1.781104009788344e-1 1.803507540264295e-1 1.826192872462680e-1 1.849163551012803e-1
      1.872423165129923e-1 1.895975349176073e-1 1.919823783227921e-1 1.943972193651812e-1
      1.968424353686001e-1 1.993184084030244e-1 2.018255253442784e-1 2.043641779344843e-1
      2.069347628432750e-1 2.095376817297717e-1 2.121733413053463e-1 2.148421533971703e-1
      2.175445350125620e-1 2.202809084041476e-1 2.230517011358359e-1 2.258573461496290e-1
      2.286982818332686e-1 2.315749520887345e-1 2.344878064016076e-1 2.374372999112998e-1
      2.404238934821734e-1 2.434480537755494e-1 2.465102533226267e-1 2.496109705983151e-1
      2.527506900959966e-1 2.559299024032312e-1 2.591491042784094e-1 2.624087987283739e-1
      2.657094950870152e-1 2.690517090948534e-1 2.724359629796282e-1 2.758627855378934e-1
      2.793327122176459e-1 2.828462852019898e-1 2.864040534938513e-1 2.900065730017652e-1
      2.936544066267333e-1 2.973481243501811e-1 3.010883033230187e-1 3.048755279558190e-1
      3.087103900101368e-1 3.125934886909695e-1 3.165254307403864e-1 3.205068305323331e-1
      3.245383101686262e-1 3.286204995761620e-1 3.327540366053396e-1 3.369395671297300e-1
      3.411777451469940e-1 3.454692328810682e-1 3.498147008856432e-1 3.542148281489345e-1
      3.586703021997798e-1 3.631818192150647e-1 3.677500841285006e-1 3.723758107407757e-1
      3.770597218310826e-1 3.818025492700597e-1 3.866050341341442e-1 3.914679268213656e-1
      3.963919871686011e-1 4.013779845702969e-1 4.064266980986916e-1 4.115389166255464e-1
      4.167154389454057e-1 4.219570739004151e-1 4.272646405066991e-1 4.326389680823389e-1
      4.380808963769531e-1 4.435912757029080e-1 4.491709670681857e-1 4.548208423109124e-1
      4.605417842355904e-1 4.663346867510356e-1 4.722004550100500e-1 4.781400055508599e-1
      4.841542664403197e-1 4.902441774189303e-1 4.964106900476731e-1 5.026547678566901e-1
      5.089773864958450e-1 5.153795338871613e-1 5.218622103791954e-1 5.284264289033390e-1
      5.350732151320897e-1 5.418036076393208e-1 5.486186580625524e-1 5.555194312672796e-1
      5.625070055133565e-1 5.695824726234732e-1 5.767469381537628e-1 5.840015215665389e-1
      5.913473564052198e-1 5.987855904714458e-1 6.063173860044207e-1 6.139439198625221e-1
      6.216663837071794e-1 6.294859841890812e-1 6.374039431367127e-1 6.454214977472665e-1
      6.535399007799649e-1 6.617604207517963e-1 6.700843421357321e-1 6.785129655614250e-1
      6.870476080184310e-1 6.956896030620003e-1 7.044403010214383e-1 7.133010692111059e-1
      7.222732921440613e-1 7.313583717483894e-1 7.405577275862644e-1 7.498727970757502e-1
      7.593050357154069e-1 7.688559173117135e-1 7.785269342093484e-1 7.883195975243803e-1
      7.982354373803725e-1 8.082760031474781e-1 8.184428636845270e-1 8.287376075841603e-1
      8.391618434210597e-1 8.497172000032805e-1 8.604053266267647e-1 8.712278933330440e-1
      8.821865911701819e-1 8.932831324570145e-1 9.045192510506904e-1 9.158967026176018e-1
      9.274172649077052e-1 9.390827380322937e-1 9.508949447452801e-1 9.628557307279921e-1
      9.749669648775756e-1 9.872305395990086e-1 9.996483711007885e-1 1.012222399694355e0
      1.024954590097254e0 1.037846931740143e0 1.050901439077633e0 1.064120151903053e0
      1.077505135667180e0 1.091058481800953e0 1.104782308042284e0 1.118678758766945e0
      1.132750005323631e0 1.146998246373249e0 1.161425708232447e0 1.176034645221495e0
      1.190827340016522e0 1.205806104006181e0 1.220973277652825e0 1.236331230858190e0
      1.251882363333712e0 1.267629104975481e0 1.283573916243912e0 1.299719288548209e0
      1.316067744635640e0 1.332621838985731e0 1.349384158209405e0 1.366357321453141e0
      1.383543980808232e0 1.400946821725164e0 1.418568563433238e0 1.436411959365452e0
      1.454479797588717e0 1.472774901239520e0 1.491300128965023e0 1.510058375369750e0
      1.529052571467869e0 1.548285685141159e0 1.567760721602767e0 1.587480723866756e0
      1.607448773223604e0 1.627667989721651e0 1.648141532654605e0 1.668872601055210e0
      1.689864434195074e0 1.711120312090837e0 1.732643556016669e0 1.754437529023216e0
      1.776505636463106e0 1.798851326523020e0 1.821478090762495e0 1.844389464659480e0
      1.867589028162754e0 1.891080406251322e0 1.914867269500796e0 1.938953334656957e0
      1.963342365216493e0 1.988038172015042e0 2.013044613822667e0 2.038365597946769e0
      2.064005080842637e0 2.089967068731641e0 2.116255618227203e0 2.142874836968671e0
      2.169828884263124e0 2.197121971735295e0 2.224758363985633e0 2.252742379256646e0
      2.281078390107661e0 2.309770824098017e0 2.338824164478904e0 2.368242950893868e0
      2.398031780088135e0 2.428195306626877e0 2.458738243622477e0 2.489665363470985e0
      2.520981498597803e0 2.552691542212750e0 2.584800449074663e0 2.617313236265557e0
      2.650234983974582e0 2.683570836291803e0 2.717326002011958e0 2.751505755448374e0
      2.786115437257056e0 2.821160455271205e0 2.856646285346191e0 2.892578472215149e0
      2.928962630355393e0 2.965804444865644e0 3.003109672354383e0 3.040884141839306e0
      3.079133755658113e0 3.117864490390794e0 3.157082397793437e0 3.196793605743869e0
      3.237004319199132e0 3.277720821165000e0 3.318949473677756e0 3.360696718798223e0
      3.402969079618393e0 3.445773161280654e0 3.489115652009839e0 3.533003324158317e0
      3.577443035264140e0 3.622441729122587e0 3.668006436871131e0 3.714144278088047e0
      3.760862461904906e0 3.808168288132965e0 3.856069148403823e0 3.904572527324360e0
      3.953686003646200e0 4.003417251449951e0 4.053774041344252e0 4.104764241679979e0
      4.156395819779684e0 4.208676843182475e0 4.261615480904640e0 4.315220004716013e0
      4.369498790432507e0 4.424460319224828e0 4.480113178943653e0 4.536466065461559e0
      4.593527784031695e0 4.651307250663693e0 4.709813493516772e0 4.769055654310395e0
      4.829042989752733e0 4.889784872986974e0 4.951290795055963e0 5.013570366385170e0
      5.076633318284302e0 5.140489504467916e0 5.205148902595002e0 5.270621615828076e0
      5.336917874411795e0 5.404048037271425e0 5.472022593631510e0 5.540852164654757e0
      5.610547505101683e0 5.681119505011037e0 5.752579191401367e0 5.824937729994077e0
      5.898206426958017e0 5.972396730676161e0 6.047520233534421e0 6.123588673732935e0
      6.200613937120268e0 6.278608059050514e0 6.357583226263913e0 6.437551778791031e0
      6.518526211880874e0 6.600519177953379e0 6.683543488576289e0 6.767612116467063e0
      6.852738197519862e0 6.938935032858014e0 7.026216090912436e0 7.114595009525998e0
      7.204085598084555e0 7.294701839674652e0 7.386457893268371e0 7.479368095935792e0
      7.573446965085082e0 7.668709200730963e0 7.765169687791582e0 7.862843498414266e0
      7.961745894330670e0 8.061892329241347e0 8.163298451230515e0 8.265980105211064e0
      8.369953335400304e0 8.475234387827017e0 8.581839712869810e0 8.689785967827628e0
      8.799090019522442e0 8.909768946934678e0 9.021840043871956e0 9.135320821671147e0
      9.250229011934678e0 9.366582569301078e0 9.484399674250378e0 9.603698735944954e0
      9.724498395105883e0 9.846817526925692e0 9.970675244017608e0 1.009609089940188e1
      1.022308408952985e1 1.035167465734583e1 1.048188269538766e1 1.061372854892622e1
      1.074723281914433e1 1.088241636635586e1 1.101930031326507e1 1.115790604826716e1
      1.129825522879025e1 1.144036978467930e1 1.158427192162284e1 1.172998412462249e1
      1.187752916150646e1 1.202693008648696e1 1.217821024376242e1 1.233139327116526e1
      1.248650310385510e1 1.264356397805892e1 1.280260043485786e1 1.296363732402181e1
      1.312669980789239e1 1.329181336531441e1 1.345900379561717e1 1.362829722264557e1
      1.379972009884197e1 1.397329920937958e1 1.414906167634753e1 1.432703496298891e1
      1.450724687799186e1 1.468972557983469e1 1.487449958118587e1 1.506159775335900e1
      1.525104933082414e1 1.544288391577575e1 1.563713148275796e1 1.583382238334838e1
      1.603298735090033e1 1.623465750534522e1 1.643886435805502e1 1.664563981676586e1
      1.685501619056392e1 1.706702619493353e1 1.728170295686922e1 1.749908002005186e1
      1.771919135008975e1 1.794207133982610e1 1.816775481471270e1 1.839627703825168e1
      1.862767371750543e1 1.886198100867581e1 1.909923552275382e1 1.933947433123993e1
      1.958273497193676e1 1.982905545481438e1 2.007847426794930e1 2.033103038353859e1
      2.058676326398908e1 2.084571286808366e1 2.110791965722486e1 2.137342460175685e1
      2.164226918736747e1 2.191449542157012e1 2.219014584026778e1 2.246926351439922e1
      2.275189205666882e1 2.303807562836140e1 2.332785894624219e1 2.362128728954424e1
      2.391840650704320e1 2.421926302422122e1 2.452390385052129e1 2.483237658669223e1
      2.514472943222671e1 2.546101119289236e1 2.578127128835769e1 2.610555975991428e1
      2.643392727829547e1 2.676642515159415e1 2.710310533327952e1 2.744402043031486e1
      2.778922371137779e1 2.813876911518318e1 2.849271125891159e1 2.885110544674313e1
      2.921400767849870e1 2.958147465839045e1 2.995356380388150e1 3.033033325465790e1
      3.071184188171293e1 3.109814929654567e1 3.148931586047571e1 3.188540269407441e1
      3.228647168671542e1 3.269258550624486e1 3.310380760877319e1 3.352020224859066e1
      3.394183448820680e1 3.436877020851691e1 3.480107611909598e1 3.523881976862193e1
      3.568206955543072e1 3.613089473820323e1 3.658536544678746e1 3.704555269315631e1
      3.751152838250317e1 3.798336532447765e1 3.846113724456178e1 3.894491879559017e1
      3.943478556941449e1 3.993081410871465e1 4.043308191895923e1 4.094166748051533e1
      4.145665026091172e1 4.197811072725568e1 4.250613035880582e1 4.304079165970399e1
      4.358217817186609e1 4.413037448803617e1 4.468546626500403e1 4.524754023698899e1
      4.581668422919292e1 4.639298717152234e1 4.697653911248456e1 4.756743123325772e1
      4.816575586193768e1 4.877160648796514e1 4.938507777673287e1 5.000626558437792e1
      5.063526697275917e1 5.127218022462307e1 5.191710485896122e1 5.257014164655965e1
      5.323139262574515e1 5.390096111832863e1 5.457895174574911e1 5.526547044542169e1
      5.596062448728975e1 5.666452249058672e1 5.737727444080782e1 5.809899170689516e1
      5.882978705864010e1 5.956977468430302e1 6.031907020845598e1 6.107779071004924e1
      6.184605474070455e1 6.262398234323999e1 6.341169507042594e1 6.420931600397873e1
      6.501696977379211e1 6.583478257741061e1 6.666288219974884e1 6.750139803305735e1
      6.835046109714118e1 6.921020405983167e1 7.008076125771563e1 7.096226871712664e1
      7.185486417539844e1 7.275868710238750e1 7.367387872226515e1 7.460058203558368e1