<UPF version="2.0.1">
  <PP_INFO>
Generated using "atomic" code by A. Dal Corso  v.6.3
Author: ADC
Generation date:  4Sep2018
Pseudopotential type: USPP
Element: Pd
Functional: PBESOL
    Suggested minimum cutoff for wavefunctions:  56. Ry
    Suggested minimum cutoff for charge density: 544. Ry
    The Pseudo was generated with a Scalar-Relativistic Calculation
    Local Potential by smoothing AE potential with Bessel fncs, cutoff radius:   1.2000
    Pseudopotential contains additional information for GIPAW reconstruction.
    Valence configuration:
    nl pn  l   occ       Rcut    Rcut US       E pseu
    4S  1  0  2.00      0.800      1.400    -6.799215
    5S  2  0  2.00      0.800      1.400    -0.402764
    4P  2  1  6.00      0.900      1.300    -4.272407
    4D  3  2  8.00      1.100      1.600    -0.712433
    Generation configuration:
    4S  1  0  2.00      0.800      1.400    -6.799261
    5S  2  0  2.00      0.800      1.400    -0.402777
    4P  2  1  6.00      0.900      1.300    -4.272434
    5P  2  1  0.00      0.900      1.300    -2.500000
    4D  3  2  8.00      1.100      1.600    -0.712452
    4D  3  2  0.00      1.100      1.600     0.500000
    Pseudization used: troullier-martins

    <PP_INPUTFILE>
 &amp;input
   title='Pd',
   zed=46.,
   rel=1,
   config='[Kr] 5s2 5p0 4d8',
   iswitch=3,
   dft='PBESOL'
 /
 &amp;inputp
   lpaw=.false.,
   use_xsd=.FALSE.,
   pseudotype=3,
   file_pseudopw='Pd.pbesol-spn-rrkjus_psl.1.0.0.UPF',
   author='ADC',
   lloc=-1,
   rcloc=1.2,
   which_augfun='PSQ',
   rmatch_augfun_nc=.true.,
   nlcc=.true.,
   new_core_ps=.true.,
   rcore=1.0,
   tm=.true.
 /
6
4S  1  0  2.00  0.00  0.80  1.40  0.0
5S  2  0  2.00  0.00  0.80  1.40  0.0
4P  2  1  6.00  0.00  0.90  1.30  0.0
5P  2  1  0.00 -2.50  0.90  1.30  0.0
4D  3  2  8.00  0.00  1.10  1.60  0.0
4D  3  2  0.00  0.50  1.10  1.60  0.0
</PP_INPUTFILE>
  </PP_INFO>
  <!--
 END OF HUMAN READABLE SECTION 
-->
  <PP_HEADER generated="Generated using &quot;atomic&quot; code by A. Dal Corso  v.6.3" author="ADC" date=" 4Sep2018" comment="" element="Pd" pseudo_type="USPP" relativistic="scalar" is_ultrasoft="true" is_paw="false" is_coulomb="false" has_so="false" has_wfc="false" has_gipaw="true" paw_as_gipaw="false" core_correction="true" functional="PBESOL" z_valence="1.800000000000e1" total_psenergy="-2.587403190587e2" wfc_cutoff="5.573944370577e1" rho_cutoff="5.435897452517e2" l_max="2" l_max_rho="4" l_local="-1" mesh_size="1235" number_of_wfc="4" number_of_proj="6"/>
  <PP_MESH dx="1.250000000000e-2" mesh="1235" xmin="-7.000000000000e0" rmax="1.000000000000e2" zmesh="4.600000000000e1">
    <PP_R>
      1.982352099031557e-5 2.007287018845701e-5 2.032535581340396e-5 2.058101731654900e-5
      2.083989464552217e-5 2.110202825043280e-5 2.136745909018997e-5 2.163622863890242e-5
      2.190837889235893e-5 2.218395237459032e-5 2.246299214451385e-5 2.274554180266128e-5
      2.303164549799153e-5 2.332134793478907e-5 2.361469437964908e-5 2.391173066855039e-5
      2.421250321401746e-5 2.451705901237244e-5 2.482544565107843e-5 2.513771131617517e-5
      2.545390479980814e-5 2.577407550785246e-5 2.609827346763263e-5 2.642654933573945e-5
      2.675895440594523e-5 2.709554061721847e-5 2.743636056183945e-5 2.778146749361792e-5
      2.813091533621409e-5 2.848475869156435e-5 2.884305284841286e-5 2.920585379095058e-5
      2.957321820756291e-5 2.994520349968734e-5 3.032186779078258e-5 3.070326993541047e-5
      3.108946952843205e-5 3.148052691431947e-5 3.187650319658485e-5 3.227746024732798e-5
      3.268346071690375e-5 3.309456804371155e-5 3.351084646410762e-5 3.393236102244201e-5
      3.435917758122211e-5 3.479136283140357e-5 3.522898430281102e-5 3.567211037468969e-5
      3.612081028638986e-5 3.657515414818568e-5 3.703521295222987e-5 3.750105858364657e-5
      3.797276383176347e-5 3.845040240148523e-5 3.893404892481021e-5 3.942377897249163e-5
      3.991966906584580e-5 4.042179668870872e-5 4.093024029954298e-5 4.144507934369731e-5
      4.196639426581977e-5 4.249426652242755e-5 4.302877859463471e-5 4.357001400103998e-5
      4.411805731077683e-5 4.467299415672737e-5 4.523491124890281e-5 4.580389638799204e-5
      4.638003847908061e-5 4.696342754554249e-5 4.755415474310619e-5 4.815231237409820e-5
      4.875799390186529e-5 4.937129396537841e-5 4.999230839402035e-5 5.062113422255898e-5
      5.125786970630942e-5 5.190261433648637e-5 5.255546885575008e-5 5.321653527394746e-5
      5.388591688405127e-5 5.456371827829996e-5 5.525004536454041e-5 5.594500538277609e-5
      5.664870692192387e-5 5.736125993678090e-5 5.808277576520545e-5 5.881336714551364e-5
      5.955314823409497e-5 6.030223462324975e-5 6.106074335925030e-5 6.182879296062972e-5
      6.260650343670094e-5 6.339399630630798e-5 6.419139461681405e-5 6.499882296332739e-5
      6.581640750816989e-5 6.664427600059007e-5 6.748255779672409e-5 6.833138387980827e-5
      6.919088688064493e-5 7.006120109832665e-5 7.094246252122060e-5 7.183480884821702e-5
      7.273837951024504e-5 7.365331569205895e-5 7.457976035429858e-5 7.551785825582725e-5
      7.646775597635063e-5 7.742960193932022e-5 7.840354643512457e-5 7.938974164457269e-5
      8.038834166267245e-5 8.139950252270825e-5 8.242338222062189e-5 8.346014073969920e-5
      8.450994007556803e-5 8.557294426151053e-5 8.664931939409326e-5 8.773923365912083e-5
      8.884285735791449e-5 8.996036293392253e-5 9.109192499966476e-5 9.223772036401609e-5
      9.339792805983347e-5 9.457272937192975e-5 9.576230786540012e-5 9.696684941430439e-5
      9.818654223071013e-5 9.942157689410161e-5 1.006721463811575e-4 1.019384460959046e-4
      1.032206739002495e-4 1.045190301448953e-4 1.058337177006470e-4 1.071649419901098e-4
      1.085129110197873e-4 1.098778354125829e-4 1.112599284407098e-4 1.126594060590158e-4
      1.140764869387257e-4 1.155113925016103e-4 1.169643469545831e-4 1.184355773247331e-4
      1.199253134947994e-4 1.214337882390891e-4 1.229612372598502e-4 1.245078992240997e-4
      1.260740158009161e-4 1.276598316992011e-4 1.292655947059151e-4 1.308915557247947e-4
      1.325379688155574e-4 1.342050912335979e-4 1.358931834701861e-4 1.376025092931684e-4
      1.393333357881822e-4 1.410859334003888e-4 1.428605759767307e-4 1.446575408087212e-4
      1.464771086757710e-4 1.483195638890614e-4 1.501851943359681e-4 1.520742915250437e-4
      1.539871506315679e-4 1.559240705436673e-4 1.578853539090194e-4 1.598713071821399e-4
      1.618822406722682e-4 1.639184685918538e-4 1.659803091056514e-4 1.680680843804363e-4
      1.701821206353429e-4 1.723227481928368e-4 1.744903015303296e-4 1.766851193324394e-4
      1.789075445439137e-4 1.811579244232132e-4 1.834366105967724e-4 1.857439591139423e-4
      1.880803305026225e-4 1.904460898255963e-4 1.928416067375708e-4 1.952672555429373e-4
      1.977234152542571e-4 2.002104696514813e-4 2.027288073419202e-4 2.052788218209611e-4
      2.078609115335545e-4 2.104754799364716e-4 2.131229355613441e-4 2.158036920785003e-4
      2.185181683615997e-4 2.212667885530841e-4 2.240499821304510e-4 2.268681839733588e-4
      2.297218344315795e-4 2.326113793938028e-4 2.355372703573076e-4 2.384999644985106e-4
      2.414999247443979e-4 2.445376198448623e-4 2.476135244459430e-4 2.507281191639918e-4
      2.538818906607707e-4 2.570753317194916e-4 2.603089413218179e-4 2.635832247258282e-4
      2.668986935449660e-4 2.702558658279803e-4 2.736552661398695e-4 2.770974256438492e-4
      2.805828821843451e-4 2.841121803710322e-4 2.876858716639335e-4 2.913045144595832e-4
      2.949686741782812e-4 2.986789233524379e-4 3.024358417160352e-4 3.062400162952116e-4
      3.100920414999838e-4 3.139925192171278e-4 3.179420589042222e-4 3.219412776848782e-4
      3.259908004451677e-4 3.300912599312597e-4 3.342432968482920e-4 3.384475599604802e-4
      3.427047061924888e-4 3.470154007320787e-4 3.513803171340407e-4 3.558001374254441e-4
      3.602755522122012e-4 3.648072607869774e-4 3.693959712384583e-4 3.740424005619865e-4
      3.787472747715981e-4 3.835113290134601e-4 3.883353076807399e-4 3.932199645299199e-4
      3.981660627985691e-4 4.031743753246062e-4 4.082456846670524e-4 4.133807832283099e-4
      4.185804733779768e-4 4.238455675782173e-4 4.291768885107127e-4 4.345752692052050e-4
      4.400415531696607e-4 4.455765945220708e-4 4.511812581239075e-4 4.568564197152615e-4
      4.626029660516777e-4 4.684217950427124e-4 4.743138158922341e-4 4.802799492404879e-4
      4.863211273079479e-4 4.924382940409776e-4 4.986324052593246e-4 5.049044288054691e-4
      5.112553446958502e-4 5.176861452739975e-4 5.241978353655842e-4 5.307914324354355e-4
      5.374679667465087e-4 5.442284815208727e-4 5.510740331027162e-4 5.580056911234008e-4
      5.650245386685945e-4 5.721316724475067e-4 5.793282029642497e-4 5.866152546913583e-4
      5.939939662454908e-4 6.014654905653387e-4 6.090309950917788e-4 6.166916619502848e-4
      6.244486881356398e-4 6.323032856989669e-4 6.402566819371150e-4 6.483101195844284e-4
      6.564648570069240e-4 6.647221683989151e-4 6.730833439821063e-4 6.815496902071932e-4
      6.901225299579989e-4 6.988032027581753e-4 7.075930649805093e-4 7.164934900588558e-4
      7.255058687027409e-4 7.346316091146643e-4 7.438721372101311e-4 7.532288968404570e-4
      7.627033500183704e-4 7.722969771464558e-4 7.820112772484711e-4 7.918477682035705e-4
      8.018079869834786e-4 8.118934898926440e-4 8.221058528114151e-4 8.324466714422753e-4
      8.429175615591742e-4 8.535201592599959e-4 8.642561212222025e-4 8.751271249616924e-4
      8.861348690949180e-4 8.972810736042945e-4 9.085674801069548e-4 9.199958521268766e-4
      9.315679753704387e-4 9.432856580054430e-4 9.551507309436396e-4 9.671650481268156e-4
      9.793304868164745e-4 9.916489478871609e-4 1.004122356123481e-3 1.016752660520847e-3
      1.029541834590020e-3 1.042491876665467e-3 1.055604810217608e-3 1.068882684168991e-3
      1.082327573214434e-3 1.095941578145204e-3 1.109726826177270e-3 1.123685471283683e-3
      1.137819694531139e-3 1.152131704420778e-3 1.166623737233264e-3 1.181298057378206e-3
      1.196156957747984e-3 1.211202760076009e-3 1.226437815299507e-3 1.241864503926854e-3
      1.257485236409532e-3 1.273302453518773e-3 1.289318626726929e-3 1.305536258593651e-3
      1.321957883156913e-3 1.338586066328962e-3 1.355423406297249e-3 1.372472533930400e-3
      1.389736113189295e-3 1.407216841543316e-3 1.424917450391834e-3 1.442840705490992e-3
      1.460989407385864e-3 1.479366391848048e-3 1.497974530318752e-3 1.516816730357471e-3
      1.535895936096296e-3 1.555215128699940e-3 1.574777326831553e-3 1.594585587124394e-3
      1.614643004659433e-3 1.634952713448966e-3 1.655517886926312e-3 1.676341738441667e-3
      1.697427521764200e-3 1.718778531590450e-3 1.740398104059143e-3 1.762289617272462e-3
      1.784456491823887e-3 1.806902191332664e-3 1.829630222985008e-3 1.852644138082106e-3
      1.875947532595011e-3 1.899544047726530e-3 1.923437370480159e-3 1.947631234236189e-3
      1.972129419335056e-3 1.996935753668019e-3 2.022054113275293e-3 2.047488422951667e-3
      2.073242656859775e-3 2.099320839151062e-3 2.125727044594567e-3 2.152465399213615e-3
      2.179540080930517e-3 2.206955320219372e-3 2.234715400767096e-3 2.262824660142753e-3
      2.291287490475312e-3 2.320108339139917e-3 2.349291709452811e-3 2.378842161374978e-3
      2.408764312224651e-3 2.439062837398777e-3 2.469742471103560e-3 2.500808007094183e-3
      2.532264299423848e-3 2.564116263202230e-3 2.596368875363470e-3 2.629027175443841e-3
      2.662096266369173e-3 2.695581315252202e-3 2.729487554199942e-3 2.763820281131208e-3
      2.798584860604440e-3 2.833786724655906e-3 2.869431373648484e-3 2.905524377131098e-3
      2.942071374708972e-3 2.979078076924836e-3 3.016550266151202e-3 3.054493797493874e-3
      3.092914599706819e-3 3.131818676118550e-3 3.171212105570161e-3 3.211101043365149e-3
      3.251491722231199e-3 3.292390453294058e-3 3.333803627063663e-3 3.375737714432674e-3
      3.418199267687558e-3 3.461194921532399e-3 3.504731394125584e-3 3.548815488129531e-3
      3.593454091773621e-3 3.638654179930491e-3 3.684422815205874e-3 3.730767149042149e-3
      3.777694422835764e-3 3.825211969068729e-3 3.873327212454315e-3 3.922047671097193e-3
      3.971380957668147e-3 4.021334780593572e-3 4.071916945259935e-3 4.123135355233376e-3
      4.174998013494656e-3 4.227513023689644e-3 4.280688591395523e-3 4.334533025402938e-3
      4.389054739014249e-3 4.444262251358133e-3 4.500164188720713e-3 4.556769285893431e-3
      4.614086387537894e-3 4.672124449567841e-3 4.730892540548544e-3 4.790399843113782e-3
      4.850655655400649e-3 4.911669392502410e-3 4.973450587939619e-3 5.036008895149759e-3
      5.099354088995605e-3 5.163496067292568e-3 5.228444852355265e-3 5.294210592563495e-3
      5.360803563947970e-3 5.428234171795951e-3 5.496512952277097e-3 5.565650574089784e-3
      5.635657840128079e-3 5.706545689169726e-3 5.778325197585365e-3 5.851007581069214e-3
      5.924604196391580e-3 5.999126543173330e-3 6.074586265682771e-3 6.150995154655066e-3
      6.228365149134567e-3 6.306708338340334e-3 6.386036963555064e-3 6.466363420037842e-3
      6.547700258960920e-3 6.630060189370854e-3 6.713456080174346e-3 6.797900962148997e-3
      6.883408029979421e-3 6.969990644318933e-3 7.057662333877168e-3 7.146436797534005e-3
      7.236327906479991e-3 7.327349706383792e-3 7.419516419586825e-3 7.512842447325532e-3
      7.607342371981640e-3 7.703030959360627e-3 7.799923160998952e-3 7.898034116500251e-3
      7.997379155900919e-3 8.097973802065500e-3 8.199833773112108e-3 8.302974984868460e-3
      8.407413553358728e-3 8.513165797321719e-3 8.620248240760715e-3 8.728677615525365e-3
      8.838470863926073e-3 8.949645141381277e-3 9.062217819098009e-3 9.176206486786208e-3
      9.291628955407106e-3 9.408503259956248e-3 9.526847662281511e-3 9.646680653936519e-3
      9.768020959070036e-3 9.890887537351601e-3 1.001529958693405e-2 1.014127654745323e-2
      1.026883810306554e-2 1.039800418552357e-2 1.052879497729049e-2 1.066123091469362e-2
      1.079533269111761e-2 1.093112126023785e-2 1.106861783929455e-2 1.120784391240792e-2
      1.134882123393514e-2 1.149157183186952e-2 1.163611801128240e-2 1.178248235780842e-2
      1.193068774117449e-2 1.208075731877330e-2 1.223271453928165e-2 1.238658314632441e-2
      1.254238718218450e-2 1.270015099155948e-2 1.285989922536555e-2 1.302165684458926e-2
      1.318544912418768e-2 1.335130165703778e-2 1.351924035793522e-2 1.368929146764370e-2
      1.386148155699508e-2 1.403583753104113e-2 1.421238663325755e-2 1.439115644980074e-2
      1.457217491381825e-2 1.475547030981337e-2 1.494107127806461e-2 1.512900681910092e-2
      1.531930629823290e-2 1.551199945014137e-2 1.570711638352332e-2 1.590468758579656e-2
      1.610474392786343e-2 1.630731666893439e-2 1.651243746141237e-2 1.672013835583850e-2
      1.693045180590011e-2 1.714341067350167e-2 1.735904823389951e-2 1.757739818090115e-2
      1.779849463213005e-2 1.802237213435653e-2 1.824906566889581e-2 1.847861065707388e-2
      1.871104296576214e-2 1.894639891298171e-2 1.918471527357816e-2 1.942602928496773e-2
      1.967037865295565e-2 1.991780155762779e-2 2.016833665931638e-2 2.042202310464078e-2
      2.067890053262422e-2 2.093900908088744e-2 2.120238939192029e-2 2.146908261943222e-2
      2.173913043478261e-2 2.201257503349205e-2 2.228945914183542e-2 2.256982602351795e-2
      2.285371948643532e-2 2.314118388951868e-2 2.343226414966590e-2 2.372700574875983e-2
      2.402545474077496e-2 2.432765775897351e-2 2.463366202319188e-2 2.494351534721897e-2
      2.525726614626703e-2 2.557496344453676e-2 2.589665688287737e-2 2.622239672654306e-2
      2.655223387304718e-2 2.688621986011490e-2 2.722440687373620e-2 2.756684775632001e-2
      2.791359601495090e-2 2.826470582974982e-2 2.862023206233961e-2 2.898023026441747e-2
      2.934475668643487e-2 2.971386828638688e-2 3.008762273871199e-2 3.046607844330378e-2
      3.084929453463604e-2 3.123733089100273e-2 3.163024814387394e-2 3.202810768736991e-2
      3.243097168785372e-2 3.283890309364507e-2 3.325196564485609e-2 3.367022388335072e-2
      3.409374316282976e-2 3.452258965904226e-2 3.495683038012574e-2 3.539653317707633e-2
      3.584176675435061e-2 3.629260068060094e-2 3.674910539954548e-2 3.721135224097533e-2
      3.767941343189992e-2 3.815336210783258e-2 3.863327232421823e-2 3.911921906800455e-2
      3.961127826935891e-2 4.010952681353263e-2 4.061404255287440e-2 4.112490431899500e-2
      4.164219193508472e-2 4.216598622838598e-2 4.269636904282279e-2 4.323342325178896e-2
      4.377723277109733e-2 4.432788257209165e-2 4.488545869492365e-2 4.545004826199689e-2
      4.602173949157989e-2 4.660062171159042e-2 4.718678537355311e-2 4.778032206673267e-2
      4.838132453244498e-2 4.898988667854801e-2 4.960610359411531e-2 5.023007156429358e-2
      5.086188808534765e-2 5.150165187989439e-2 5.214946291232822e-2 5.280542240444106e-2
      5.346963285123806e-2 5.414219803695287e-2 5.482322305126413e-2 5.551281430571580e-2
      5.621107955034450e-2 5.691812789051526e-2 5.763406980396973e-2 5.835901715808854e-2
      5.909308322737054e-2 5.983638271113277e-2 6.058903175143156e-2 6.135114795121086e-2
      6.212285039267752e-2 6.290425965590785e-2 6.369549783768925e-2 6.449668857059714e-2
      6.530795704231373e-2 6.612943001518838e-2 6.696123584604416e-2 6.780350450623468e-2
      6.865636760195150e-2 6.951995839478857e-2 7.039441182256443e-2 7.127986452040593e-2
      7.217645484209894e-2 7.308432288170501e-2 7.400361049545257e-2 7.493446132390168e-2
      7.587702081438785e-2 7.683143624374943e-2 7.779785674133870e-2 7.877643331232481e-2
      7.976731886128797e-2 8.077066821611096e-2 8.178663815217204e-2 8.281538741684049e-2
      8.385707675428202e-2 8.491186893057511e-2 8.597992875914297e-2 8.706142312650716e-2
      8.815652101836253e-2 8.926539354598285e-2 9.038821397295676e-2 9.152515774226000e-2
      9.267640250367004e-2 9.384212814152271e-2 9.502251680282081e-2 9.621775292569430e-2
      9.742802326821881e-2 9.865351693759798e-2 9.989442541971066e-2 1.011509426090319e-1
      1.024232648389292e-1 1.037115909123392e-1 1.050161221328322e-1 1.063370623360653e-1
      1.076746179216329e-1 1.090289978853166e-1 1.104004138517409e-1 1.117890801074411e-1
      1.131952136343446e-1 1.146190341436759e-1 1.160607641102865e-1 1.175206288074167e-1
      1.189988563418958e-1 1.204956776897831e-1 1.220113267324599e-1 1.235460402931728e-1
      1.251000581740376e-1 1.266736231935104e-1 1.282669812243265e-1 1.298803812319200e-1
      1.315140753133250e-1 1.331683187365649e-1 1.348433699805407e-1 1.365394907754167e-1
      1.382569461435180e-1 1.399960044407405e-1 1.417569373984807e-1 1.435400201660964e-1
      1.453455313538972e-1 1.471737530766799e-1 1.490249709978083e-1 1.508994743738486e-1
      1.527975560997674e-1 1.547195127546956e-1 1.566656446482710e-1 1.586362558675617e-1
      1.606316543245794e-1 1.626521518043932e-1 1.646980640138445e-1 1.667697106308789e-1
      1.688674153544952e-1 1.709915059553237e-1 1.731423143268430e-1 1.753201765372364e-1
      1.775254328819054e-1 1.797584279366407e-1 1.820195106114623e-1 1.843090342051387e-1
      1.866273564603891e-1 1.889748396197827e-1 1.913518504823394e-1 1.937587604608421e-1
      1.961959456398724e-1 1.986637868345723e-1 2.011626696501498e-1 2.036929845421290e-1
      2.062551268773593e-1 2.088494969957937e-1 2.114765002730410e-1 2.141365471837083e-1
      2.168300533655375e-1 2.195574396843490e-1 2.223191322998046e-1 2.251155627319934e-1
      2.279471679288602e-1 2.308143903344785e-1 2.337176779581816e-1 2.366574844445685e-1
      2.396342691443827e-1 2.426484971862905e-1 2.457006395495563e-1 2.487911731376331e-1
      2.519205808526826e-1 2.550893516710264e-1 2.582979807195521e-1 2.615469693530769e-1
      2.648368252326842e-1 2.681680624050493e-1 2.715412013827568e-1 2.749567692256353e-1
      2.784152996231096e-1 2.819173329775899e-1 2.854634164889136e-1 2.890541042398432e-1
      2.926899572826458e-1 2.963715437267557e-1 3.000994388275455e-1 3.038742250762097e-1
      3.076964922907784e-1 3.115668377082815e-1 3.154858660780636e-1 3.194541897562813e-1
      3.234724288015837e-1 3.275412110719955e-1 3.316611723230257e-1 3.358329563070006e-1
      3.400572148736559e-1 3.443346080719877e-1 3.486658042533843e-1 3.530514801760622e-1
      3.574923211108057e-1 3.619890209480467e-1 3.665422823062837e-1 3.711528166418665e-1
      3.758213443601666e-1 3.805485949281367e-1 3.853353069882966e-1 3.901822284741447e-1
      3.950901167270232e-1 4.000597386144581e-1 4.050918706499786e-1 4.101872991144540e-1
      4.153468201789493e-1 4.205712400291265e-1 4.258613749912178e-1 4.312180516595724e-1
      4.366421070258188e-1 4.421343886096441e-1 4.476957545912182e-1 4.533270739452920e-1
      4.590292265769701e-1 4.648031034592031e-1 4.706496067720016e-1 4.765696500434016e-1
      4.825641582922101e-1 4.886340681725353e-1 4.947803281201463e-1 5.010038985006652e-1
      5.073057517596244e-1 5.136868725744185e-1 5.201482580081555e-1 5.266909176654560e-1
      5.333158738502037e-1 5.400241617252793e-1 5.468168294743130e-1 5.536949384654585e-1
      5.606595634172404e-1 5.677117925664781e-1 5.748527278383218e-1 5.820834850184382e-1
      5.894051939273458e-1 5.968189985969587e-1 6.043260574493411e-1 6.119275434777098e-1
      6.196246444297243e-1 6.274185629930660e-1 6.353105169833682e-1 6.433017395344995e-1
      6.513934792912397e-1 6.595870006043905e-1 6.678835837283247e-1 6.762845250210361e-1
      6.847911371466950e-1 6.934047492807500e-1 7.021267073176244e-1 7.109583740810038e-1
      7.199011295367894e-1 7.289563710087165e-1 7.381255133966860e-1 7.474099893978527e-1
      7.568112497304793e-1 7.663307633606204e-1 7.759700177316502e-1 7.857305189966724e-1
      7.956137922538704e-1 8.056213817847954e-1 8.157548512956739e-1 8.260157841617348e-1
      8.364057836746117e-1 8.469264732928700e-1 8.575794968956643e-1 8.683665190396074e-1
      8.792892252188572e-1 8.903493221284739e-1 9.015485379311047e-1 9.128886225270001e-1
      9.243713478274518e-1 9.359985080316513e-1 9.477719199070329e-1 9.596934230731584e-1
      9.717648802891491e-1 9.839881777447557e-1 9.963652253550762e-1 1.008897957058978e0
      1.021588331121290e0 1.034438330438776e0 1.047449962849974e0 1.060625261448923e0
      1.073966284902830e0 1.087475117773757e0 1.101153870844319e0 1.115004681447515e0
      1.129029713800685e0 1.143231159343662e0 1.157611237081211e0 1.172172193929730e0
      1.186916305068353e0 1.201845874294445e0 1.216963234383569e0 1.232270747453997e0
      1.247770805335788e0 1.263465829944521e0 1.279358273659727e0 1.295450619708065e0
      1.311745382551349e0 1.328245108279421e0 1.344952375007997e0 1.361869793281498e0
      1.379000006480942e0 1.396345691236999e0 1.413909557848196e0 1.431694350704428e0
      1.449702848715765e0 1.467937865746656e0 1.486402251055614e0 1.505098889740405e0
      1.524030703188866e0 1.543200649535368e0 1.562611724123023e0 1.582266959971734e0
      1.602169428252084e0 1.622322238765237e0 1.642728540428841e0 1.663391521769041e0
      1.684314411418717e0 1.705500478621938e0 1.726953033744812e0 1.748675428792724e0
      1.770671057934090e0 1.792943358030720e0 1.815495809174810e0 1.838331935232739e0
      1.861455304395666e0 1.884869529737063e0 1.908578269777281e0 1.932585229055181e0
      1.956894158706996e0 1.981508857052444e0 2.006433170188215e0 2.031670992588951e0
      2.057226267715742e0 2.083102988632323e0 2.109305198628988e0 2.135836991854349e0
      2.162702513955086e0 2.189905962723677e0 2.217451588754341e0 2.245343696107192e0
      2.273586642980744e0 2.302184842392914e0 2.331142762870534e0 2.360464929147600e0
      2.390155922872252e0 2.420220383322660e0 2.450663008131942e0 2.481488554022153e0
      2.512701837547558e0 2.544307735847215e0 2.576311187407029e0 2.608717192831425e0
      2.641530815624673e0 2.674757182982099e0 2.708401486591205e0 2.742468983442873e0
      2.776964996652805e0 2.811894916293238e0 2.847264200235187e0 2.883078375001232e0
      2.919343036629033e0 2.956063851545764e0 2.993246557453451e0 3.030896964225547e0
      3.069020954814718e0 3.107624486172044e0 3.146713590177851e0 3.186294374584156e0
      3.226373023969057e0 3.266955800703065e0 3.308049045927600e0 3.349659180545846e0
      3.391792706225981e0 3.434456206417118e0 3.477656347377971e0 3.521399879218442e0
      3.565693636954391e0 3.610544541575567e0 3.655959601127075e0 3.701945911804373e0
      3.748510659062051e0 3.795661118736618e0 3.843404658183314e0 3.891748737427319e0
      3.940700910329377e0 3.990268825766087e0 4.040460228825094e0 4.091282962015228e0
      4.142744966491956e0 4.194854283298187e0 4.247619054620673e0 4.301047525062299e0
      4.355148042930257e0 4.409929061540541e0 4.465399140538769e0 4.521566947237623e0
      4.578441257971190e0 4.636030959466218e0 4.694345050230742e0 4.753392641960091e0
      4.813182960960591e0 4.873725349591245e0 4.935029267723437e0 4.997104294219105e0
      5.059960128427441e0 5.123606591700405e0 5.188053628927388e0 5.253311310089060e0
      5.319389831830878e0 5.386299519056311e0 5.454050826540100e0 5.522654340561897e0
      5.592120780560325e0 5.662461000807974e0 5.733685992107375e0 5.805806883508308e0
      5.878834944046804e0 5.952781584505882e0 6.027658359198565e0 6.103476967773251e0
      6.180249257041759e0 6.257987222830508e0 6.336703011854786e0 6.416408923616789e0
      6.497117412327404e0 6.578841088852171e0 6.661592722681839e0 6.745385243927530e0
      6.830231745341178e0 6.916145484361262e0 7.003139885184273e0 7.091228540862355e0
      7.180425215427150e0 7.270743846040545e0 7.362198545172339e0 7.454803602805312e0
      7.548573488668154e0 7.643522854496278e0 7.739666536321285e0 7.837019556789080e0
      7.935597127507150e0 8.035414651421505e0 8.136487725223308e0 8.238832141785990e0
      8.342463892632875e0 8.447399170435844e0 8.553654371545575e0 8.661246098553390e0
      8.770191162885546e0 8.880506587430011e0 8.992209609196278e0 9.105317682008788e0
      9.219848479234013e0 9.335819896542041e0 9.453250054702796e0 9.572157302417368e0
      9.692560219185165e0 9.814477618206860e0 9.937928549324107e0 1.006293230199608e1
      1.018950840831341e1 1.031767664605028e1 1.044745704175455e1 1.057886987387711e1
      1.071193567594036e1 1.084667523974657e1 1.098310961862673e1 1.112126013073009e1
      1.126114836235526e1 1.140279617132305e1 1.154622569039176e1 1.169145933071560e1
      1.183851978534629e1 1.198743003277911e1 1.213821334054318e1 1.229089326883707e1
      1.244549367421026e1 1.260203871329058e1 1.276055284655889e1 1.292106084217105e1
      1.308358777982788e1 1.324815905469409e1 1.341480038136617e1 1.358353779789045e1
      1.375439766983161e1 1.392740669439219e1 1.410259190458433e1 1.427998067345348e1
      1.445960071835569e1 1.464148010528847e1 1.482564725327599e1 1.501213093880988e1
      1.520096030034535e1 1.539216484285433e1 1.558577444243565e1 1.578181935098307e1
      1.598033020091248e1 1.618133800994798e1 1.638487418596872e1 1.659097053191634e1
      1.679965925076413e1 1.701097295054906e1 1.722494464946657e1 1.744160778102998e1
      1.766099619929443e1 1.788314418414657e1 1.810808644666106e1 1.833585813452399e1
      1.856649483752504e1 1.880003259311830e1 1.903650789205317e1 1.927595768407629e1
      1.951841938370475e1 1.976393087607244e1 2.001253052284959e1 2.026425716823670e1
      2.051915014503434e1 2.077724928078865e1 2.103859490401471e1 2.130322785049792e1
      2.157118946967449e1 2.184252163109265e1 2.211726673095459e1 2.239546769874117e1
      2.267716800391966e1 2.296241166273576e1 2.325124324509161e1 2.354370788150948e1
      2.383985127018388e1 2.413971968412185e1 2.444335997837306e1 2.475081959735133e1
      2.506214658224758e1 2.537738957853664e1 2.569659784357809e1 2.601982125431268e1
      2.634711031505605e1 2.667851616538972e1 2.701409058815209e1 2.735388601752949e1
      2.769795554724900e1 2.804635293887475e1 2.839913263020789e1 2.875634974379299e1
      2.911806009553085e1 2.948432020339975e1 2.985518729628680e1 3.023071932292968e1
      3.061097496097164e1 3.099601362612983e1 3.138589548147892e1 3.178068144685216e1
      3.218043320835970e1 3.258521322802766e1 3.299508475355767e1 3.341011182820940e1
      3.383035930080775e1 3.425589283587517e1 3.468677892389237e1 3.512308489168730e1
      3.556487891295494e1 3.601223001891011e1 3.646520810907312e1 3.692388396219222e1
      3.738832924730270e1 3.785861653492516e1 3.833481930840521e1 3.881701197539494e1
      3.930526987947963e1 3.979966931195027e1 4.030028752372388e1 4.080720273741473e1
      4.132049415955610e1 4.184024199297712e1 4.236652744933424e1 4.289943276180061e1
      4.343904119791567e1 4.398543707259524e1 4.453870576130647e1 4.509893371340769e1
      4.566620846565604e1 4.624061865588584e1 4.682225403685783e1 4.741120549028369e1
      4.800756504102633e1 4.861142587147869e1 4.922288233612428e1 4.984202997627953e1
      5.046896553502298e1 5.110378697231126e1 5.174659348028535e1 5.239748549877008e1
      5.305656473096741e1 5.372393415934837e1 5.439969806174403e1 5.508396202763879e1
      5.577683297466964e1 5.647841916533154e1 5.718883022389426e1 5.790817715353114e1
      5.863657235366326e1 5.937412963752278e1 6.012096424993565e1 6.087719288532964e1
      6.164293370596768e1 6.241830636041069e1 6.320343200221366e1 6.399843330885523e1
      6.480343450090714e1 6.561856136144354e1 6.644394125569455e1 6.727970315094814e1
      6.812597763670055e1 6.898289694506208e1 6.985059497141821e1 7.072920729535062e1
      7.161887120182273e1 7.251972570262975e1 7.343191155812033e1 7.435557129919038e1
      7.529084924955336e1 7.623789154829217e1 7.719684617269245e1 7.816786296136541e1
      7.915109363765997e1 8.014669183336943e1 8.115481311273772e1 8.217561499676547e1
      8.320925698782405e1 8.425590059457768e1 8.531570935721902e1 8.638884887302375e1
      8.747548682222421e1 8.857579299421088e1 8.968993931406192e1 9.081809986940621e1
      9.196045093762613e1 9.311717101339987e1 9.428844083659284e1 9.547444342049799e1