<UPF version="2.0.1">
  <PP_INFO>
Generated using "atomic" code by A. Dal Corso  v.6.3
Author: ADC
Generation date:  4Sep2018
Pseudopotential type: USPP
Element: Ni
Functional: PBESOL
    Suggested minimum cutoff for wavefunctions:  75. Ry
    Suggested minimum cutoff for charge density: 477. Ry
    The Pseudo was generated with a Scalar-Relativistic Calculation
    Local Potential by smoothing AE potential with Bessel fncs, cutoff radius:   1.5000
    Pseudopotential contains additional information for GIPAW reconstruction.
    Valence configuration:
    nl pn  l   occ       Rcut    Rcut US       E pseu
    3S  1  0  2.00      0.800      1.200    -8.141921
    4S  2  0  2.00      0.800      1.200    -0.416148
    3P  2  1  6.00      1.000      1.200    -5.237053
    3D  3  2  8.00      1.000      1.400    -0.654130
    Generation configuration:
    3S  1  0  2.00      0.800      1.200    -8.141976
    4S  2  0  2.00      0.800      1.200    -0.416157
    3P  2  1  6.00      1.000      1.200    -5.237106
    4P  3  1  0.00      1.000      1.200     7.000000
    3D  3  2  8.00      1.000      1.400    -0.654171
    3D  3  2  0.00      1.000      1.400     4.000000
    Pseudization used: troullier-martins

    <PP_INPUTFILE>
 &amp;input
   title='Ni',
   zed=28.,
   rel=1,
   config='[Ar] 4s2 4p0 3d8',
   iswitch=3,
   dft='PBESOL'
 /
 &amp;inputp
   lpaw=.false.,
   use_xsd=.FALSE.,
   pseudotype=3,
   file_pseudopw='Ni.pbesol-spn-rrkjus_psl.1.0.0.UPF',
   author='ADC',
   lloc=-1,
   rcloc=1.5,
   which_augfun='PSQ',
   rmatch_augfun_nc=.true.,
   nlcc=.true.,
   new_core_ps=.true.,
   rcore=0.8,
   tm=.true.
 /
6
3S  1  0  2.00  0.00  0.80  1.20  0.0
4S  2  0  2.00  0.00  0.80  1.20  0.0
3P  2  1  6.00  0.00  1.00  1.20  0.0
4P  3  1  0.00  7.00  1.00  1.20  0.0
3D  3  2  8.00  0.00  1.00  1.40  0.0
3D  3  2  0.00  4.00  1.00  1.40  0.0
</PP_INPUTFILE>
  </PP_INFO>
  <!--
 END OF HUMAN READABLE SECTION 
-->
  <PP_HEADER generated="Generated using &quot;atomic&quot; code by A. Dal Corso  v.6.3" author="ADC" date=" 4Sep2018" comment="" element="Ni" pseudo_type="USPP" relativistic="scalar" is_ultrasoft="true" is_paw="false" is_coulomb="false" has_so="false" has_wfc="false" has_gipaw="true" paw_as_gipaw="false" core_correction="true" functional="PBESOL" z_valence="1.800000000000e1" total_psenergy="-3.388396573816e2" wfc_cutoff="7.461684959556e1" rho_cutoff="4.767164932326e2" l_max="2" l_max_rho="4" l_local="-1" mesh_size="1195" number_of_wfc="4" number_of_proj="6"/>
  <PP_MESH dx="1.250000000000e-2" mesh="1195" xmin="-7.000000000000e0" rmax="1.000000000000e2" zmesh="2.800000000000e1">
    <PP_R>
      3.256721305551844e-5 3.297685816675079e-5 3.339165597916365e-5 3.381167130575907e-5
      3.423696977478643e-5 3.466761783999674e-5 3.510368279102638e-5 3.554523276391111e-5
      3.599233675173251e-5 3.644506461539838e-5 3.690348709455846e-5 3.736767581865781e-5
      3.783770331812893e-5 3.831364303572488e-5 3.879556933799493e-5 3.928355752690423e-5
      3.977768385160012e-5 4.027802552032616e-5 4.078466071248598e-5 4.129766859085921e-5
      4.181712931397052e-5 4.234312404861474e-5 4.287573498253932e-5 4.341504533728624e-5
      4.396113938119574e-5 4.451410244257319e-5 4.507402092302194e-5 4.564098231094373e-5
      4.621507519520885e-5 4.679638927899857e-5 4.738501539382113e-5 4.798104551370452e-5
      4.858457276956763e-5 4.919569146377204e-5 4.981449708485711e-5 5.044108632246006e-5
      5.107555708242408e-5 5.171800850209626e-5 5.236854096581797e-5 5.302725612061025e-5
      5.369425689205616e-5 5.436964750038328e-5 5.505353347674823e-5 5.574602167972616e-5
      5.644722031200775e-5 5.715723893730587e-5 5.787618849747523e-5 5.860418132984736e-5
      5.934133118478337e-5 6.008775324344789e-5 6.084356413580622e-5 6.160888195884794e-5
      6.238382629503999e-5 6.316851823101145e-5 6.396308037647392e-5 6.476763688337911e-5
      6.558231346531811e-5 6.640723741716432e-5 6.724253763496347e-5 6.808834463607415e-5
      6.894479057956104e-5 6.981200928684526e-5 7.069013626261416e-5 7.157930871599426e-5
      7.247966558199050e-5 7.339134754319496e-5 7.431449705176890e-5 7.524925835170122e-5
      7.619577750134672e-5 7.715420239624838e-5 7.812468279224589e-5 7.910737032887560e-5
      8.010241855306440e-5 8.110998294312166e-5 8.213022093303341e-5 8.316329193706121e-5
      8.420935737465117e-5 8.526858069565620e-5 8.634112740587513e-5 8.742716509291368e-5
      8.852686345236995e-5 8.964039431434994e-5 9.076793167031635e-5 9.190965170027500e-5
      9.306573280030351e-5 9.423635561042579e-5 9.542170304283751e-5 9.662196031048669e-5
      9.783731495601312e-5 9.906795688105316e-5 1.003140783759112e-4 1.015758741496060e-4
      1.028535413602944e-4 1.041472796460774e-4 1.054572911561945e-4 1.067837805826093e-4
      1.081269551919934e-4 1.094870248581122e-4 1.108642020946182e-4 1.122587020882564e-4
      1.136707427324881e-4 1.151005446615367e-4 1.165483312848624e-4 1.180143288220708e-4
      1.194987663382597e-4 1.210018757798111e-4 1.225238920106334e-4 1.240650528488590e-4
      1.256255991040046e-4 1.272057746145975e-4 1.288058262862761e-4 1.304260041303694e-4
      1.320665613029619e-4 1.337277541444493e-4 1.354098422195931e-4 1.371130883580773e-4
      1.388377586955761e-4 1.405841227153387e-4 1.423524532902961e-4 1.441430267256985e-4
      1.459561228022881e-4 1.477920248200156e-4 1.496510196423064e-4 1.515333977408836e-4
      1.534394532411550e-4 1.553694839681703e-4 1.573237914931573e-4 1.593026811806429e-4
      1.613064622361667e-4 1.633354477545955e-4 1.653899547690445e-4 1.674703043004147e-4
      1.695768214075528e-4 1.717098352380423e-4 1.738696790796344e-4 1.760566904123233e-4
      1.782712109610792e-4 1.805135867492434e-4 1.827841681525947e-4 1.850833099540973e-4
      1.874113713993351e-4 1.897687162526456e-4 1.921557128539579e-4 1.945727341763473e-4
      1.970201578843133e-4 1.994983663927893e-4 2.020077469268967e-4 2.045486915824495e-4
      2.071215973872193e-4 2.097268663629733e-4 2.123649055882891e-4 2.150361272621628e-4
      2.177409487684157e-4 2.204797927409107e-4 2.232530871295915e-4 2.260612652673481e-4
      2.289047659377279e-4 2.317840334434960e-4 2.346995176760576e-4 2.376516741857562e-4
      2.406409642530524e-4 2.436678549606010e-4 2.467328192662333e-4 2.498363360768575e-4
      2.529788903232902e-4 2.561609730360250e-4 2.593830814219604e-4 2.626457189420870e-4
      2.659493953901550e-4 2.692946269723313e-4 2.726819363878557e-4 2.761118529107168e-4
      2.795849124723491e-4 2.831016577453747e-4 2.866626382283986e-4 2.902684103318646e-4
      2.939195374650011e-4 2.976165901238503e-4 3.013601459804118e-4 3.051507899729053e-4
      3.089891143971655e-4 3.128757189991938e-4 3.168112110688664e-4 3.207962055348256e-4
      3.248313250605651e-4 3.289172001417193e-4 3.330544692045831e-4 3.372437787058647e-4
      3.414857832336966e-4 3.457811456099176e-4 3.501305369936367e-4 3.545346369861076e-4
      3.589941337369138e-4 3.635097240514953e-4 3.680821135000267e-4 3.727120165276609e-4
      3.774001565661663e-4 3.821472661469617e-4 3.869540870155768e-4 3.918213702475532e-4
      3.967498763657967e-4 4.017403754594167e-4 4.067936473040492e-4 4.119104814837008e-4
      4.170916775141233e-4 4.223380449677363e-4 4.276504036001294e-4 4.330295834781464e-4
      4.384764251095870e-4 4.439917795745391e-4 4.495765086583571e-4 4.552314849863238e-4
      4.609575921599954e-4 4.667557248952671e-4 4.726267891621765e-4 4.785717023264581e-4
      4.845913932928904e-4 4.906868026504337e-4 4.968588828192007e-4 5.031085981992763e-4
      5.094369253214021e-4 5.158448529995672e-4 5.223333824855080e-4 5.289035276251571e-4
      5.355563150170614e-4 5.422927841727838e-4 5.491139876793370e-4 5.560209913636461e-4
      5.630148744590889e-4 5.700967297741292e-4 5.772676638630670e-4 5.845287971989439e-4
      5.918812643486163e-4 5.993262141500343e-4 6.068648098917530e-4 6.144982294946922e-4
      6.222276656961970e-4 6.300543262363986e-4 6.379794340469298e-4 6.460042274420111e-4
      6.541299603119350e-4 6.623579023189960e-4 6.706893390958717e-4 6.791255724465092e-4
      6.876679205495333e-4 6.963177181642141e-4 7.050763168390279e-4 7.139450851228368e-4
      7.229254087787282e-4 7.320186910005449e-4 7.412263526321337e-4 7.505498323893583e-4
      7.599905870848992e-4 7.695500918558847e-4 7.792298403943847e-4 7.890313451808016e-4
      7.989561377202000e-4 8.090057687816060e-4 8.191818086403192e-4 8.294858473232706e-4
      8.399194948574682e-4 8.504843815215670e-4 8.611821581006026e-4 8.720144961439299e-4
      8.829830882264071e-4 8.940896482128624e-4 9.053359115258909e-4 9.167236354170155e-4
      9.282545992412624e-4 9.399306047351898e-4 9.517534762984102e-4 9.637250612786602e-4
      9.758472302604488e-4 9.881218773573423e-4 1.000550920507922e-3 1.013136301775468e-3
      1.025879987651408e-3 1.038783969362588e-3 1.051850263182403e-3 1.065080910745847e-3
      1.078477979368518e-3 1.092043562369646e-3 1.105779779399175e-3 1.119688776768960e-3
      1.133772727788141e-3 1.148033833102717e-3 1.162474321039408e-3 1.177096447953835e-3
      1.191902498583074e-3 1.206894786402663e-3 1.222075653988073e-3 1.237447473380751e-3
      1.253012646458751e-3 1.268773605312034e-3 1.284732812622488e-3 1.300892762048723e-3
      1.317255978615715e-3 1.333825019109344e-3 1.350602472475896e-3 1.367590960226595e-3
      1.384793136847215e-3 1.402211690212851e-3 1.419849342007904e-3 1.437708848151352e-3
      1.455792999227365e-3 1.474104620921341e-3 1.492646574461426e-3 1.511421757065583e-3
      1.530433102394293e-3 1.549683581008942e-3 1.569176200835980e-3 1.588914007636911e-3
      1.608900085484208e-3 1.629137557243193e-3 1.649629585060004e-3 1.670379370855678e-3
      1.691390156826462e-3 1.712665225950410e-3 1.734207902500356e-3 1.756021552563342e-3
      1.778109584566570e-3 1.800475449809978e-3 1.823122643005515e-3 1.846054702823193e-3
      1.869275212444014e-3 1.892787800119850e-3 1.916596139740362e-3 1.940703951407053e-3
      1.965115002014545e-3 1.989833105839157e-3 2.014862125134905e-3 2.040205970736975e-3
      2.065868602672803e-3 2.091854030780841e-3 2.118166315337097e-3 2.144809567689570e-3
      2.171787950900641e-3 2.199105680397580e-3 2.226767024631195e-3 2.254776305742799e-3
      2.283137900239556e-3 2.311856239678306e-3 2.340935811358013e-3 2.370381159020916e-3
      2.400196883562491e-3 2.430387643750364e-3 2.460958156952235e-3 2.491913199872988e-3
      2.523257609301059e-3 2.554996282864186e-3 2.587134179794695e-3 2.619676321704362e-3
      2.652627793369068e-3 2.685993743523301e-3 2.719779385664655e-3 2.753989998868454e-3
      2.788630928612613e-3 2.823707587612882e-3 2.859225456668592e-3 2.895190085519044e-3
      2.931607093710671e-3 2.968482171475092e-3 3.005821080618229e-3 3.043629655420603e-3
      3.081913803548946e-3 3.120679506979300e-3 3.159932822931689e-3 3.199679884816597e-3
      3.239926903193306e-3 3.280680166740318e-3 3.321946043237982e-3 3.363730980563453e-3
      3.406041507698202e-3 3.448884235748173e-3 3.492265858976787e-3 3.536193155850939e-3
      3.580672990100134e-3 3.625712311788967e-3 3.671318158403087e-3 3.717497655948809e-3
      3.764258020066583e-3 3.811606557158436e-3 3.859550665529618e-3 3.908097836544606e-3
      3.957255655797642e-3 4.007031804297990e-3 4.057434059670134e-3 4.108470297369015e-3
      4.160148491910608e-3 4.212476718117950e-3 4.265463152382844e-3 4.319116073943453e-3
      4.373443866177926e-3 4.428455017914332e-3 4.484158124757047e-3 4.540561890429842e-3
      4.597675128135865e-3 4.655506761934704e-3 4.714065828136796e-3 4.773361476715375e-3
      4.833402972736168e-3 4.894199697805088e-3 4.955761151534118e-3 5.018096953025650e-3
      5.081216842375489e-3 5.145130682194759e-3 5.209848459150979e-3 5.275380285528460e-3
      5.341736400808399e-3 5.408927173268809e-3 5.476963101604588e-3 5.545854816567965e-3
      5.615613082629560e-3 5.686248799660369e-3 5.757773004634890e-3 5.830196873355657e-3
      5.903531722199520e-3 5.977789009885806e-3 6.052980339266794e-3 6.129117459140674e-3
      6.206212266087327e-3 6.284276806327195e-3 6.363323277603517e-3 6.443364031088245e-3
      6.524411573311956e-3 6.606478568118010e-3 6.689577838641324e-3 6.773722369311975e-3
      6.858925307884079e-3 6.945199967490129e-3 7.032559828721217e-3 7.121018541733399e-3
      7.210589928380552e-3 7.301287984374074e-3 7.393126881469742e-3 7.486120969682064e-3
      7.580284779526538e-3 7.675633024290024e-3 7.772180602329750e-3 7.869942599401214e-3
      7.968934291015350e-3 8.069171144825390e-3 8.170668823043661e-3 8.273443184888889e-3
      8.377510289064208e-3 8.482886396266363e-3 8.589587971726507e-3 8.697631687782884e-3
      8.807034426485950e-3 8.917813282236205e-3 9.029985564455231e-3 9.143568800290360e-3
      9.258580737353272e-3 9.375039346493121e-3 9.492962824604529e-3 9.612369597470851e-3
      9.733278322643311e-3 9.855707892356186e-3 9.979677436478838e-3 1.010520632550475e-2
      1.023231417357822e-2 1.036102084155912e-2 1.049134644012617e-2 1.062331133291931e-2
      1.075693613972151e-2 1.089224173968069e-2 1.102924927457214e-2 1.116798015210192e-2
      1.130845604925190e-2 1.145069891566682e-2 1.159473097708392e-2 1.174057473880586e-2
      1.188825298921713e-2 1.203778880334480e-2 1.218920554646407e-2 1.234252687774909e-2
      1.249777675396984e-2 1.265497943323532e-2 1.281415947878399e-2 1.297534176282184e-2
      1.313855147040865e-2 1.330381410339332e-2 1.347115548439847e-2 1.364060176085533e-2
      1.381217940908934e-2 1.398591523845711e-2 1.416183639553546e-2 1.433997036836310e-2
      1.452034499073569e-2 1.470298844655496e-2 1.488792927423244e-2 1.507519637114877e-2
      1.526481899816881e-2 1.545682678421384e-2 1.565124973089105e-2 1.584811821718142e-2
      1.604746300418649e-2 1.624931523993478e-2 1.645370646424879e-2 1.666066861367317e-2
      1.687023402646481e-2 1.708243544764586e-2 1.729730603412009e-2 1.751487935985380e-2
      1.773518942112178e-2 1.795827064181932e-2 1.818415787884105e-2 1.841288642752730e-2
      1.864449202717916e-2 1.887901086664278e-2 1.911647958996394e-2 1.935693530211383e-2
      1.960041557478667e-2 1.984695845227042e-2 2.009660245739129e-2 2.034938659753296e-2
      2.060535037073167e-2 2.086453377184772e-2 2.112697729881484e-2 2.139272195896806e-2
      2.166180927545120e-2 2.193428129370492e-2 2.221018058803645e-2 2.248955026827180e-2
      2.277243398649192e-2 2.305887594385329e-2 2.334892089749455e-2 2.364261416752980e-2
      2.394000164412999e-2 2.424112979469339e-2 2.454604567110615e-2 2.485479691709436e-2
      2.516743177566835e-2 2.548399909666082e-2 2.580454834435974e-2 2.612912960523721e-2
      2.645779359577564e-2 2.679059167039222e-2 2.712757582946317e-2 2.746879872744897e-2
      2.781431368112161e-2 2.816417467789560e-2 2.851843638426347e-2 2.887715415433760e-2
      2.924038403849937e-2 2.960818279215716e-2 2.998060788461455e-2 3.035771750804995e-2
      3.073957058660922e-2 3.112622678561280e-2 3.151774652087841e-2 3.191419096816128e-2
      3.231562207271285e-2 3.272210255895993e-2 3.313369594030549e-2 3.355046652905270e-2
      3.397247944645407e-2 3.439980063288651e-2 3.483249685815475e-2 3.527063573192436e-2
      3.571428571428571e-2 3.616351612645124e-2 3.661839716158676e-2 3.707899989577949e-2
      3.754539629914374e-2 3.801765924706641e-2 3.849586253159399e-2 3.898008087296257e-2
      3.947038993127316e-2 3.996686631831362e-2 4.046958760952951e-2 4.097863235614545e-2
      4.149408009743870e-2 4.201601137316754e-2 4.254450773615568e-2 4.307965176503503e-2
      4.362152707714894e-2 4.417021834161733e-2 4.472581129256660e-2 4.528839274252572e-2
      4.585805059599076e-2 4.643487386316041e-2 4.701895267384365e-2 4.761037829154297e-2
      4.820924312771443e-2 4.881564075620702e-2 4.942966592788399e-2 5.005141458542763e-2
      5.068098387833064e-2 5.131847217807590e-2 5.196397909350718e-2 5.261760548639343e-2
      5.327945348718824e-2 5.394962651098833e-2 5.462822927369214e-2 5.531536780836189e-2
      5.601114948179175e-2 5.671568301128371e-2 5.742907848163513e-2 5.815144736233968e-2
      5.888290252500457e-2 5.962355826098725e-2 6.037353029925328e-2 6.113293582445948e-2
      6.190189349526416e-2 6.268052346286780e-2 6.346894738978710e-2 6.426728846886462e-2
      6.507567144251823e-2 6.589422262223219e-2 6.672306990829366e-2 6.756234280977750e-2
      6.841217246478203e-2 6.927269166091983e-2 7.014403485606602e-2 7.102633819936757e-2
      7.191973955251704e-2 7.282437851129342e-2 7.374039642737456e-2 7.466793643042346e-2
      7.560714345045268e-2 7.655816424047000e-2 7.752114739940867e-2 7.849624339534654e-2
      7.948360458901675e-2 8.048338525761459e-2 8.149574161890371e-2 8.252083185562517e-2
      8.355881614021399e-2 8.460985665982648e-2 8.567411764168208e-2 8.675176537872460e-2
      8.784296825560538e-2 8.894789677499402e-2 9.006672358421962e-2 9.119962350224739e-2
      9.234677354699452e-2 9.350835296298934e-2 9.468454324937884e-2 9.587552818828829e-2
      9.708149387353732e-2 9.830262873971812e-2 9.953912359163755e-2 1.007911716341321e-1
      1.020589685022559e-1 1.033427122918486e-1 1.046426035904895e-1 1.059588455088382e-1
      1.072916437123726e-1 1.086412064535238e-1 1.100077446042154e-1 1.113914716888141e-1
      1.127926039174918e-1 1.142113602200098e-1 1.156479622799273e-1 1.171026345692383e-1
      1.185756043834483e-1 1.200671018770868e-1 1.215773600996721e-1 1.231066150321242e-1
      1.246551056236372e-1 1.262230738290169e-1 1.278107646464850e-1 1.294184261559622e-1
      1.310463095578302e-1 1.326946692121823e-1 1.343637626785684e-1 1.360538507562379e-1
      1.377651975248919e-1 1.394980703859448e-1 1.412527401043063e-1 1.430294808506903e-1
      1.448285702444527e-1 1.466502893969718e-1 1.484949229555718e-1 1.503627591479986e-1
      1.522540898274579e-1 1.541692105182159e-1 1.561084204617770e-1 1.580720226636406e-1
      1.600603239406452e-1 1.620736349689110e-1 1.641122703323818e-1 1.661765485719810e-1
      1.682667922353837e-1 1.703833279274144e-1 1.725264863610816e-1 1.746966024092502e-1
      1.768940151569683e-1 1.791190679544487e-1 1.813721084707172e-1 1.836534887479390e-1
      1.859635652564232e-1 1.883026989503247e-1 1.906712553240421e-1 1.930696044693274e-1
      1.954981211331145e-1 1.979571847760723e-1 2.004471796318984e-1 2.029684947673553e-1
      2.055215241430618e-1 2.081066666750528e-1 2.107243262971078e-1 2.133749120238686e-1
      2.160588380147482e-1 2.187765236386424e-1 2.215283935394597e-1 2.243148777024702e-1
      2.271364115214939e-1 2.299934358669308e-1 2.328863971546469e-1 2.358157474157298e-1
      2.387819443671169e-1 2.417854514831169e-1 2.448267380678280e-1 2.479062793284656e-1
      2.510245564496179e-1 2.541820566684285e-1 2.573792733507309e-1 2.606167060681370e-1
      2.638948606760946e-1 2.672142493929317e-1 2.705753908798875e-1 2.739788103221581e-1
      2.774250395109564e-1 2.809146169266033e-1 2.844480878226707e-1 2.880260043111741e-1
      2.916489254488445e-1 2.953174173244812e-1 2.990320531474024e-1 3.027934133370136e-1
      3.066020856134963e-1 3.104586650896429e-1 3.143637543638433e-1 3.183179636142406e-1
      3.223219106940761e-1 3.263762212282260e-1 3.304815287109603e-1 3.346384746049263e-1
      3.388477084413759e-1 3.431098879216611e-1 3.474256790199960e-1 3.517957560875207e-1
      3.562208019576688e-1 3.607015080528591e-1 3.652385744925360e-1 3.698327102025605e-1
      3.744846330259847e-1 3.791950698352147e-1 3.839647566455841e-1 3.887944387303625e-1
      3.936848707372001e-1 3.986368168060487e-1 4.036510506885568e-1 4.087283558689686e-1
      4.138695256865501e-1 4.190753634595433e-1 4.243466826106927e-1 4.296843067943406e-1
      4.350890700251241e-1 4.405618168082952e-1 4.461034022716719e-1 4.517146922992580e-1
      4.573965636665372e-1 4.631499041774690e-1 4.689756128032153e-1 4.748745998225996e-1
      4.808477869643467e-1 4.868961075510987e-1 4.930205066452534e-1 4.992219411966302e-1
      5.055013801919931e-1 5.118598048064625e-1 5.182982085568187e-1 5.248175974567479e-1
      5.314189901740304e-1 5.381034181897069e-1 5.448719259592564e-1 5.517255710757867e-1
      5.586654244352919e-1 5.656925704039796e-1 5.728081069877026e-1 5.800131460035306e-1
      5.873088132534665e-1 5.946962487003623e-1 6.021766066460374e-1 6.097510559116380e-1
      6.174207800202737e-1 6.251869773819390e-1 6.330508614807729e-1 6.410136610646663e-1
      6.490766203372525e-1 6.572409991523241e-1 6.655080732106792e-1 6.738791342594601e-1
      6.823554902939881e-1 6.909384657621364e-1 6.996294017712864e-1 7.084296562978690e-1
      7.173406043995596e-1 7.263636384301295e-1 7.355001682570013e-1 7.447516214815513e-1
      7.541194436621652e-1 7.636050985401194e-1 7.732100682682884e-1 7.829358536427311e-1
      7.927839743372022e-1 8.027559691405937e-1 8.128533961973831e-1 8.230778332510928e-1
      8.334308778908115e-1 8.439141478008302e-1 8.545292810133983e-1 8.652779361646779e-1
      8.761617927539062e-1 8.871825514058161e-1 8.983419341363714e-1 9.096416846218249e-1
      9.210835684711808e-1 9.326693735020712e-1 9.444009100201001e-1 9.562800111017198e-1
      9.683085328806396e-1 9.804883548378607e-1 9.928213800953461e-1 1.005309535713381e0
      1.017954772991690e0 1.030759067774323e0 1.043724420758391e0 1.056852857806678e0
      1.070146430264179e0 1.083607215278641e0 1.097237316125105e0 1.111038862534559e0
      1.125014011026713e0 1.139164945246946e0 1.153493876307526e0 1.168003043133078e0
      1.182694712810440e0 1.197571180942892e0 1.212634772008841e0 1.227887839725044e0
      1.243332767414359e0 1.258971968378162e0 1.274807886273425e0 1.290842995494533e0
      1.307079801559930e0 1.323520841503593e0 1.340168684271464e0 1.357025931122850e0
      1.374095216036862e0 1.391379206124001e0 1.408880602042877e0 1.426602138422212e0
      1.444546584288123e0 1.462716743496779e0 1.481115455172529e0 1.499745594151500e0
      1.518610071430814e0 1.537711834623427e0 1.557053868418697e0 1.576639195048760e0
      1.596470874760745e0 1.616552006294956e0 1.636885727369054e0 1.657475215168320e0
      1.678323686842120e0 1.699434400006561e0 1.720810653253529e0 1.742455786666088e0
      1.764373182340364e0 1.786566264914029e0 1.809038502101381e0 1.831793405235204e0
      1.854834529815410e0 1.878165476064588e0 1.901789889490560e0 1.925711461455984e0
      1.949933929755151e0 1.974461079198017e0 1.999296742201577e0 2.024444799388710e0
      2.049909180194509e0 2.075693863480285e0 2.101802878155266e0 2.128240303806107e0
      2.155010271334359e0 2.182116963601906e0 2.209564616084567e0 2.237357517533890e0
      2.265500010647262e0 2.293996492746498e0 2.322851416464893e0 2.352069290442989e0
      2.381654680033043e0 2.411612208012362e0 2.441946555305651e0 2.472662461716380e0
      2.503764726667423e0 2.535258209950962e0 2.567147832487824e0 2.599438577096419e0
      2.632135489271280e0 2.665243677971461e0 2.698768316418810e0 2.732714642906282e0
      2.767087961616463e0 2.801893643450327e0 2.837137126866476e0 2.872823918730904e0
      2.908959595177433e0 2.945549802479040e0 2.982600257930045e0 3.020116750739500e0
      3.058105142935738e0 3.096571370282318e0 3.135521443205533e0 3.174961447733512e0
      3.214897546447208e0 3.255335979443302e0 3.296283065309210e0 3.337745202110419e0
      3.379728868390148e0 3.422240624181674e0 3.465287112033337e0 3.508875058046431e0
      3.553011272926212e0 3.597702653046040e0 3.642956181524989e0 3.688778929318959e0
      3.735178056325508e0 3.782160812502644e0 3.829734539001592e0 3.877906669313914e0
      3.926684730432986e0 3.976076344030084e0 4.026089227645334e0 4.076731195893537e0
      4.128010161685274e0 4.179934137463283e0 4.232511236454405e0 4.285749673937342e0
      4.339657768526249e0 4.394243943470591e0 4.449516727971266e0 4.505484758513292e0
      4.562156780215322e0 4.619541648196035e0 4.677648328957807e0 4.736485901787738e0
      4.796063560176269e0 4.856390613253754e0 4.917476487244954e0 4.979330726941970e0
      5.041962997195607e0 5.105383084425500e0 5.169600898149326e0 5.234626472531113e0
      5.300469967949164e0 5.367141672583607e0 5.434652004023915e0 5.503011510896747e0
      5.572230874514111e0 5.642320910542409e0 5.713292570692381e0 5.785156944430298e0
      5.857925260710785e0 5.931608889731289e0 6.006219344708766e0 6.081768283678612e0
      6.158267511316226e0 6.235728980781587e0 6.314164795586874e0 6.393587211487739e0
      6.474008638398263e0 6.555441642330000e0 6.637898947355511e0 6.721393437596446e0
      6.805938159236786e0 6.891546322561307e0 6.978231304019677e0 7.066006648316633e0
      7.154886070528280e0 7.244883458245175e0 7.336012873742263e0 7.428288556176094e0
      7.521724923809813e0 7.616336576265931e0 7.712138296807646e0 7.809145054648721e0
      7.907372007292399e0 8.006834502899903e0 8.107548082688504e0 8.209528483359959e0
      8.312791639559368e0 8.417353686364951e0 8.523230961809281e0 8.630440009432027e0
      8.738997580865014e0 8.848920638449654e0 8.960226357887306e0 9.072932130923117e0
      9.187055568063391e0 9.302614501327385e0 9.419626987033544e0 9.538111308620790e0
      9.658085979505463e0 9.779569745973948e0 9.902581590111927e0 1.002714073277034e1
      1.015326663656861e1 1.028097900893583e1 1.041029780519001e1 1.054124323165615e1
      1.067383574882359e1 1.080809607454285e1 1.094404518726302e1 1.108170432930952e1
      1.122109501020337e1 1.136223901002207e1 1.150515838280273e1 1.164987545998815e1
      1.179641285391603e1 1.194479346135232e1 1.209504046706884e1 1.224717734746587e1
      1.240122787424054e1 1.255721611810103e1 1.271516645252783e1 1.287510355758206e1
      1.303705242376175e1 1.320103835590676e1 1.336708697715258e1 1.353522423293413e1
      1.370547639503972e1 1.387787006571603e1 1.405243218182487e1 1.422919001905200e1
      1.440817119616911e1 1.458940367934931e1 1.477291578653674e1 1.495873619187158e1
      1.514689393017016e1 1.533741840146193e1 1.553033937558317e1 1.572568699682853e1
      1.592349178866134e1 1.612378465848270e1 1.632659690246103e1 1.653196021042213e1
      1.673990667080061e1 1.695046877565404e1 1.716367942573962e1 1.737957193565526e1
      1.759818003904488e1 1.781953789386936e1 1.804368008774391e1 1.827064164334230e1
      1.850045802386936e1 1.873316513860216e1 1.896879934850076e1 1.920739747188991e1
      1.944899679021177e1 1.969363505385139e1 1.994135048803522e1 2.019218179880375e1
      2.044616817905971e1 2.070334931469166e1 2.096376539077532e1 2.122745709785244e1
      2.149446563828865e1 2.176483273271172e1 2.203860062653013e1 2.231581209653432e1
      2.259651045758051e1 2.288073956935861e1 2.316854384324568e1 2.345996824924499e1
      2.375505832301292e1 2.405386017297391e1 2.435642048752484e1 2.466278654233051e1
      2.497300620771021e1 2.528712795611784e1 2.560520086971571e1 2.592727464804362e1
      2.625339961578478e1 2.658362673062882e1 2.691800759123433e1 2.725659444529113e1
      2.759944019768393e1 2.794659841875916e1 2.829812335269508e1 2.865406992597782e1
      2.901449375598371e1 2.937945115966937e1 2.974899916237174e1 3.012319550671799e1
      3.050209866164827e1 3.088576783155149e1 3.127426296551593e1 3.166764476669676e1
      3.206597470180066e1 3.246931501069044e1 3.287772871611004e1 3.329127963353173e1
      3.371003238112785e1 3.413405238986706e1 3.456340591373845e1 3.499816004010372e1
      3.543838270017951e1 3.588414267965221e1 3.633550962942540e1 3.679255407650335e1
      3.725534743501086e1 3.772396201735161e1 3.819847104550765e1 3.867894866247986e1
      3.916546994387352e1 3.965811090962875e1 4.015694853589859e1 4.066206076707719e1
      4.117352652797816e1 4.169142573616734e1 4.221583931444972e1 4.274684920351370e1
      4.328453837473495e1 4.382899084314024e1 4.438029168053556e1 4.493852702879845e1
      4.550378411333765e1 4.607615125672281e1 4.665571789248439e1 4.724257457908847e1
      4.783681301408640e1 4.843852604844244e1 4.904780770104259e1 4.966475317338446e1
      5.028945886445342e1 5.092202238578473e1 5.156254257671538e1 5.221111951982856e1
      5.286785455659095e1 5.353285030318830e1 5.420621066655904e1 5.488804086062973e1
      5.557844742275558e1 5.627753823036636e1 5.698542251782318e1 5.770221089348627e1
      5.842801535699739e1 5.916294931678090e1 5.990712760776298e1 6.066066650931579e1
      6.142368376342587e1 6.219629859309133e1 6.297863172095141e1 6.377080538814882e1
      6.457294337343083e1 6.538517101248972e1 6.620761521754638e1 6.704040449718132e1
      6.788366897641359e1 6.873754041703383e1 6.960215223819197e1 7.047763953724386e1
      7.136413911086146e1 7.226178947640647e1 7.317073089357493e1 7.409110538631262e1
      7.502305676500635e1 7.596673064895531e1 7.692227448912357e1 7.788983759118034e1
      7.886957113882897e1 7.986162821742927e1 8.086616383791846e1 8.188333496103066e1
      8.291330052182346e1 8.395622145451135e1 8.501226071761165e1 8.608158331940798e1
      8.716435634373218e1 8.826074897607233e1 8.937093253000805e1 9.049508047397799e1
      9.163336845838584e1 9.278597434304467e1 9.395307822496914e1 9.513486246651544e1
      9.633151172387535e1 9.754321297593028e1 9.877015555346574e1
      </PP_R>
    <PP_RAB>
      4.070901631939805e-7 4.122107270843848e-7 4.173956997395456e-7 4.226458913219884e-7
      4.279621221848303e-7 4.333452229999593e-7 4.387960348878298e-7 4.443154095488890e-7
      4.499042093966564e-7 4.555633076924797e-7 4.612935886819808e-7 4.670959477332225e-7
      4.729712914766116e-7 4.789205379465610e-7 4.849446167249367e-7 4.910444690863028e-7
      4.972210481450016e-7 5.034753190040769e-7 5.098082589060748e-7 5.162208573857400e-7
      5.227141164246316e-7 5.292890506076844e-7 5.359466872817416e-7 5.426880667160780e-7
      5.495142422649470e-7 5.564262805321649e-7 5.634252615377743e-7 5.705122788867967e-7
      5.776884399401107e-7 5.849548659874822e-7 5.923126924227641e-7 5.997630689213067e-7
      6.073071596195955e-7 6.149461432971504e-7 6.226812135607137e-7 6.305135790307508e-7