<UPF version="2.0.1">
  <PP_INFO>
Generated using "atomic" code by A. Dal Corso  v.6.3
Author: ADC
Generation date:  4Sep2018
Pseudopotential type: USPP
Element: Br
Functional: PBESOL
    Suggested minimum cutoff for wavefunctions:  49. Ry
    Suggested minimum cutoff for charge density: 196. Ry
    The Pseudo was generated with a Scalar-Relativistic Calculation
    L component and cutoff radius for Local Potential:  2   1.7000
    Pseudopotential contains additional information for GIPAW reconstruction.
    Valence configuration:
    nl pn  l   occ       Rcut    Rcut US       E pseu
    4S  1  0  2.00      1.200      1.500    -1.479791
    4P  2  1  5.00      1.400      1.700    -0.577337
    Generation configuration:
    4S  1  0  2.00      1.200      1.500    -1.479783
    4S  1  0  0.00      1.200      1.500     6.300000
    4P  2  1  5.00      1.400      1.700    -0.577333
    4P  2  1  0.00      1.400      1.700     6.300000
    4D  3  2 -2.00      1.700      1.700     0.500000
    Pseudization used: troullier-martins

    <PP_INPUTFILE>
 &amp;input
   title='Br',
   zed=35.,
   rel=1,
   config='[Ar] 4s2 4p5 3d10 4d-1',
   iswitch=3,
   dft='PBESOL'
 /
 &amp;inputp
   lpaw=.false.,
   use_xsd=.FALSE.,
   pseudotype=3,
   file_pseudopw='Br.pbesol-n-rrkjus_psl.1.0.0.UPF',
   author='ADC',
   lloc=2,
   which_augfun='PSQ',
   rmatch_augfun_nc=.true.,
   nlcc=.true.,
   new_core_ps=.true.,
   rcore=1.6,
   tm=.true.
 /
5
4S  1  0  2.00  0.00  1.20  1.50  0.0
4S  1  0  0.00  6.30  1.20  1.50  0.0
4P  2  1  5.00  0.00  1.40  1.70  0.0
4P  2  1  0.00  6.30  1.40  1.70  0.0
4D  3  2 -2.00  0.50  1.70  1.70  0.0
</PP_INPUTFILE>
  </PP_INFO>
  <!--
 END OF HUMAN READABLE SECTION 
-->
  <PP_HEADER generated="Generated using &quot;atomic&quot; code by A. Dal Corso  v.6.3" author="ADC" date=" 4Sep2018" comment="" element="Br" pseudo_type="USPP" relativistic="scalar" is_ultrasoft="true" is_paw="false" is_coulomb="false" has_so="false" has_wfc="false" has_gipaw="true" paw_as_gipaw="false" core_correction="true" functional="PBESOL" z_valence="7.000000000000e0" total_psenergy="-2.968972072968e1" wfc_cutoff="4.894107656807e1" rho_cutoff="1.957643062723e2" l_max="2" l_max_rho="4" l_local="2" mesh_size="1213" number_of_wfc="2" number_of_proj="4"/>
  <PP_MESH dx="1.250000000000e-2" mesh="1213" xmin="-7.000000000000e0" rmax="1.000000000000e2" zmesh="3.500000000000e1">
    <PP_R>
      2.605377044441475e-5 2.638148653340063e-5 2.671332478333092e-5 2.704933704460726e-5
      2.738957581982914e-5 2.773409427199740e-5 2.808294623282110e-5 2.843618621112889e-5
      2.879386940138601e-5 2.915605169231871e-5 2.952278967564677e-5 2.989414065492624e-5
      3.027016265450315e-5 3.065091442857991e-5 3.103645547039593e-5 3.142684602152338e-5
      3.182214708128009e-5 3.222242041626093e-5 3.262772856998879e-5 3.303813487268736e-5
      3.345370345117641e-5 3.387449923889180e-5 3.430058798603146e-5 3.473203626982899e-5
      3.516891150495661e-5 3.561128195405856e-5 3.605921673841756e-5 3.651278584875499e-5
      3.697206015616708e-5 3.743711142319886e-5 3.790801231505690e-5 3.838483641096363e-5
      3.886765821565412e-5 3.935655317101763e-5 3.985159766788568e-5 4.035286905796804e-5
      4.086044566593927e-5 4.137440680167702e-5 4.189483277265437e-5 4.242180489648820e-5
      4.295540551364493e-5 4.349571800030661e-5 4.404282678139858e-5 4.459681734378091e-5
      4.515777624960620e-5 4.572579114984469e-5 4.630095079798019e-5 4.688334506387789e-5
      4.747306494782669e-5 4.807020259475832e-5 4.867485130864496e-5 4.928710556707835e-5
      4.990706103603199e-5 5.053481458480916e-5 5.117046430117913e-5 5.181410950670329e-5
      5.246585077225449e-5 5.312578993373146e-5 5.379403010797078e-5 5.447067570885932e-5
      5.515583246364884e-5 5.584960742947621e-5 5.655210901009132e-5 5.726344697279541e-5
      5.798373246559240e-5 5.871307803455598e-5 5.945159764141512e-5 6.019940668136098e-5
      6.095662200107737e-5 6.172336191699870e-5 6.249974623379670e-5 6.328589626310048e-5
      6.408193484245153e-5 6.488798635449733e-5 6.570417674642673e-5 6.653063354964896e-5
      6.736748589972094e-5 6.821486455652495e-5 6.907290192470010e-5 6.994173207433095e-5
      7.082149076189595e-5 7.171231545147996e-5 7.261434533625310e-5 7.352772136022001e-5
      7.445258624024280e-5 7.538908448834062e-5 7.633736243427000e-5 7.729756824838933e-5
      7.826985196481052e-5 7.925436550484253e-5 8.025126270072896e-5 8.126069931968479e-5
      8.228283308823553e-5 8.331782371686193e-5 8.436583292495563e-5 8.542702446608741e-5
      8.650156415359472e-5 8.758961988648981e-5 8.869136167569453e-5 8.980696167060515e-5
      9.093659418599048e-5 9.208043572922932e-5 9.323866502788995e-5 9.441146305765663e-5
      9.559901307060779e-5 9.680150062384891e-5 9.801911360850671e-5 9.925204227908722e-5
      1.005004792832037e-4 1.017646196916780e-4 1.030446610290209e-4 1.043408033042955e-4
      1.056532490423695e-4 1.069822033155594e-4 1.083278737756745e-4 1.096904706864618e-4
      1.110702069564609e-4 1.124672981722709e-4 1.138819626322369e-4 1.153144213805588e-4
      1.167648982418305e-4 1.182336198560125e-4 1.197208157138451e-4 1.212267181927069e-4
      1.227515625929240e-4 1.242955871745362e-4 1.258590331945259e-4 1.274421449445144e-4
      1.290451697889333e-4 1.306683582036764e-4 1.323119638152356e-4 1.339762434403318e-4
      1.356614571260422e-4 1.373678681904339e-4 1.390957432637075e-4 1.408453523298586e-4
      1.426169687688633e-4 1.444108693993947e-4 1.462273345220757e-4 1.480666479632778e-4
      1.499290971194681e-4 1.518149730021165e-4 1.537245702831663e-4 1.556581873410779e-4
      1.576161263074506e-4 1.595986931142314e-4 1.616061975415174e-4 1.636389532659596e-4
      1.656972779097755e-4 1.677814930903786e-4 1.698919244706313e-4 1.720289018097303e-4
      1.741927590147325e-4 1.763838341927286e-4 1.786024697036732e-4 1.808490122138785e-4
      1.831238127501824e-4 1.854272267547968e-4 1.877596141408461e-4 1.901213393486050e-4
      1.925127714024419e-4 1.949342839684808e-4 1.973862554129866e-4 1.998690688614860e-4
      2.023831122586321e-4 2.049287784288200e-4 2.075064651375683e-4 2.101165751536696e-4
      2.127595163121240e-4 2.154357015778650e-4 2.181455491102846e-4 2.208894823285735e-4
      2.236679299778793e-4 2.264813261962998e-4 2.293301105827189e-4 2.322147282654917e-4
      2.351356299720008e-4 2.380932720990803e-4 2.410881167843295e-4 2.441206319783242e-4
      2.471912915177324e-4 2.503005751993550e-4 2.534489688550931e-4 2.566369644278605e-4
      2.598650600484521e-4 2.631337601133755e-4 2.664435753636665e-4 2.697950229646918e-4
      2.731886265869573e-4 2.766249164879341e-4 2.801044295949094e-4 2.836277095888860e-4
      2.871953069895310e-4 2.908077792411962e-4 2.944656908000214e-4 2.981696132221287e-4
      3.019201252529330e-4 3.057178129175693e-4 3.095632696124615e-4 3.134570961980425e-4
      3.173999010926373e-4 3.213923003675333e-4 3.254349178432393e-4 3.295283851869606e-4
      3.336733420112987e-4 3.378704359741891e-4 3.421203228801035e-4 3.464236667825171e-4
      3.507811400876696e-4 3.551934236596312e-4 3.596612069266857e-4 3.641851879890591e-4
      3.687660737279963e-4 3.734045799162137e-4 3.781014313297411e-4 3.828573618611665e-4
      3.876731146343124e-4 3.925494421203469e-4 3.974871062553605e-4 4.024868785594210e-4
      4.075495402571216e-4 4.126758823996537e-4 4.178667059884064e-4 4.231228221001257e-4
      4.284450520136491e-4 4.338342273382271e-4 4.392911901434696e-4 4.448167930909168e-4
      4.504118995672711e-4 4.560773838193034e-4 4.618141310904536e-4 4.676230377591551e-4
      4.735050114788930e-4 4.794609713200274e-4 4.854918479134024e-4 4.915985835957539e-4
      4.977821325569575e-4 5.040434609891189e-4 5.103835472375438e-4 5.168033819536090e-4
      5.233039682495479e-4 5.298863218551968e-4 5.365514712766974e-4 5.433004579572073e-4
      5.501343364396265e-4 5.570541745313713e-4 5.640610534712224e-4 5.711560680982694e-4
      5.783403270229826e-4 5.856149528004359e-4 5.929810821057069e-4 6.004398659114867e-4
      6.079924696679193e-4 6.156400734847078e-4 6.233838723155078e-4 6.312250761446412e-4
      6.391649101761600e-4 6.472046150252848e-4 6.553454469122552e-4 6.635886778586164e-4
      6.719355958859745e-4 6.803875052172536e-4 6.889457264804822e-4 6.976115969151439e-4
      7.063864705811257e-4 7.152717185702899e-4 7.242687292207127e-4 7.333789083336124e-4
      7.426036793930099e-4 7.519444837881519e-4 7.614027810387282e-4 7.709800490229282e-4
      7.806777842083592e-4 7.904975018858737e-4 8.004407364063379e-4 8.105090414203744e-4
      8.207039901211266e-4 8.310271754900707e-4 8.414802105459225e-4 8.520647285966772e-4
      8.627823834948144e-4 8.736348498957170e-4 8.846238235193399e-4 8.957510214151682e-4
      9.070181822305129e-4 9.184270664821733e-4 9.299794568315267e-4 9.416771583630675e-4
      9.535219988664593e-4 9.655158291221303e-4 9.776605231904579e-4 9.899579787046006e-4
      1.002410117167001e-3 1.015018884249628e-3 1.027786250097990e-3 1.040714209638978e-3
      1.053804782892572e-3 1.067060015287475e-3 1.080481977980717e-3 1.094072768181276e-3
      1.107834509477772e-3 1.121769352170281e-3 1.135879473606324e-3 1.150167078521082e-3
      1.164634399381892e-3 1.179283696737073e-3 1.194117259569141e-3 1.209137405652466e-3
      1.224346481915434e-3 1.239746864807154e-3 1.255340960668783e-3 1.271131206109529e-3
      1.287120068387366e-3 1.303310045794554e-3 1.319703668048003e-3 1.336303496684542e-3
      1.353112125461169e-3 1.370132180760328e-3 1.387366322000285e-3 1.404817242050674e-3
      1.422487667653256e-3 1.440380359847982e-3 1.458498114404412e-3 1.476843762258555e-3
      1.495420169955211e-3 1.514230240095880e-3 1.533276911792290e-3 1.552563161125642e-3
      1.572092001611636e-3 1.591866484671325e-3 1.611889700107924e-3 1.632164776589580e-3
      1.652694882138242e-3 1.673483224624673e-3 1.694533052269678e-3 1.715847654151656e-3
      1.737430360720513e-3 1.759284544318064e-3 1.781413619704956e-3 1.803821044594239e-3
      1.826510320191645e-3 1.849484991742645e-3 1.872748649086411e-3 1.896304927216732e-3
      1.920157506849993e-3 1.944310115000292e-3 1.968766525561788e-3 1.993530559898391e-3
      2.018606087440846e-3 2.043997026291349e-3 2.069707343835756e-3 2.095741057363489e-3
      2.122102234695254e-3 2.148794994818641e-3 2.175823508531724e-3 2.203191999094764e-3
      2.230904742890091e-3 2.258966070090306e-3 2.287380365334874e-3 2.316152068415235e-3
      2.345285674968537e-3 2.374785737180074e-3 2.404656864494583e-3 2.434903724336482e-3
      2.465531042839157e-3 2.496543605583440e-3 2.527946258345351e-3 2.559743907853278e-3
      2.591941522554644e-3 2.624544133392254e-3 2.657556834590386e-3 2.690984784450762e-3
      2.724833206158562e-3 2.759107388598539e-3 2.793812687181430e-3 2.828954524680751e-3
      2.864538392080107e-3 2.900569849431174e-3 2.937054526722470e-3 2.973998124759047e-3
      3.011406416053267e-3 3.049285245726749e-3 3.087640532423694e-3 3.126478269235685e-3
      3.165804524638113e-3 3.205625443438392e-3 3.245947247736108e-3 3.286776237895212e-3
      3.328118793528486e-3 3.369981374494360e-3 3.412370521906274e-3 3.455292859154762e-3
      3.498755092942341e-3 3.542764014331465e-3 3.587326499805638e-3 3.632449512343874e-3
      3.678140102508692e-3 3.724405409547763e-3 3.771252662509437e-3 3.818689181372300e-3
      3.866722378188935e-3 3.915359758244072e-3 3.964608921227294e-3 4.014477562420520e-3
      4.064973473900391e-3 4.116104545755808e-3 4.167878767320783e-3 4.220304228422767e-3
      4.273389120646717e-3 4.327141738615047e-3 4.381570481283671e-3 4.436683853254372e-3
      4.492490466103648e-3 4.548999039728296e-3 4.606218403707910e-3 4.664157498684526e-3
      4.722825377759616e-3 4.782231207908644e-3 4.842384271413435e-3 4.903293967312539e-3
      4.964969812869862e-3 5.027421445061757e-3 5.090658622082813e-3 5.154691224870596e-3
      5.219529258649565e-3 5.285182854494408e-3 5.351662270913059e-3 5.418977895449581e-3
      5.487140246307264e-3 5.556159973992104e-3 5.626047862976973e-3 5.696814833386719e-3
      5.768471942704442e-3 5.841030387499259e-3 5.914501505175793e-3 5.988896775745651e-3
      6.064227823621231e-3 6.140506419432019e-3 6.217744481863800e-3 6.295954079520971e-3
      6.375147432812280e-3 6.455336915860311e-3 6.536535058434929e-3 6.618754547911111e-3
      6.702008231251366e-3 6.786309117013090e-3 6.871670377381205e-3 6.958105350226308e-3
      7.045627541188760e-3 7.134250625788963e-3 7.223988451564185e-3 7.314855040232287e-3
      7.406864589882617e-3 7.500031477194497e-3 7.594370259683623e-3 7.689895677976681e-3
      7.786622658114648e-3 7.884566313884949e-3 7.983741949183070e-3 8.084165060403802e-3
      8.185851338862573e-3 8.288816673247295e-3 8.393077152100942e-3 8.498649066335449e-3
      8.605548911777207e-3 8.713793391744550e-3 8.823399419657713e-3 8.934384121681539e-3
      9.046764839401524e-3 9.160559132533454e-3 9.275784781667136e-3 9.392459791044692e-3
      9.510602391373704e-3 9.630231042675844e-3 9.751364437171256e-3 9.874021502199271e-3
      9.998221403175869e-3 1.012398354658825e-2 1.025132758302719e-2 1.038027341025747e-2
      1.051084117632692e-2 1.064305128271466e-2 1.077692438751877e-2 1.091248140868426e-2
      1.104974352727147e-2 1.118873219076569e-2 1.132946911642837e-2 1.147197629469048e-2
      1.161627599258855e-2 1.176239075724397e-2 1.191034341938595e-2 1.206015709691902e-2
      1.221185519853505e-2 1.236546142737107e-2 1.252099978471284e-2 1.267849457374514e-2
      1.283797040334919e-2 1.299945219194782e-2 1.316296517139903e-2 1.332853489093853e-2
      1.349618722117185e-2 1.366594835811669e-2 1.383784482729608e-2 1.401190348788304e-2
      1.418815153689743e-2 1.436661651345545e-2 1.454732630307284e-2 1.473030914202184e-2
      1.491559362174333e-2 1.510320869331422e-2 1.529318367197115e-2 1.548554824169106e-2
      1.568033245982933e-2 1.587756676181634e-2 1.607728196591303e-2 1.627950927802637e-2
      1.648428029658533e-2 1.669162701747817e-2 1.690158183905187e-2 1.711417756717445e-2
      1.732944742036095e-2 1.754742503496394e-2 1.776814447042915e-2 1.799164021461744e-2
      1.821794718919354e-2 1.844710075508263e-2 1.867913671799564e-2 1.891409133402383e-2
      1.915200131530399e-2 1.939290383575471e-2 1.963683653688492e-2 1.988383753367549e-2
      2.013394542053468e-2 2.038719927732866e-2 2.064363867548779e-2 2.090330368418977e-2
      2.116623487662052e-2 2.143247333631377e-2 2.170206066357054e-2 2.197503898195917e-2
      2.225145094489728e-2 2.253133974231648e-2 2.281474910741078e-2 2.310172332347008e-2
      2.339230723079950e-2 2.368654623372572e-2 2.398448630769164e-2 2.428617400643996e-2
      2.459165646928738e-2 2.490098142849024e-2 2.521419721670273e-2 2.553135277452902e-2
      2.585249765817028e-2 2.617768204716795e-2 2.650695675224439e-2 2.684037322324216e-2
      2.717798355716326e-2 2.751984050630920e-2 2.786599748652380e-2 2.821650858553949e-2
      2.857142857142857e-2 2.893081290116099e-2 2.929471772926941e-2 2.966319991662359e-2
      3.003631703931499e-2 3.041412739765312e-2 3.079669002527519e-2 3.118406469837006e-2
      3.157631194501852e-2 3.197349305465089e-2 3.237567008762361e-2 3.278290588491636e-2
      3.319526407795096e-2 3.361280909853404e-2 3.403560618892454e-2 3.446372141202802e-2
      3.489722166171915e-2 3.533617467329386e-2 3.578064903405329e-2 3.623071419402058e-2
      3.668644047679261e-2 3.714789909052833e-2 3.761516213907491e-2 3.808830263323438e-2
      3.856739450217155e-2 3.905251260496561e-2 3.954373274230719e-2 4.004113166834211e-2
      4.054478710266451e-2 4.105477774246072e-2 4.157118327480575e-2 4.209408438911474e-2
      4.262356278975060e-2 4.315970120879067e-2 4.370258341895371e-2 4.425229424668952e-2
      4.480891958543340e-2 4.537254640902697e-2 4.594326278530811e-2 4.652115788987174e-2
      4.710632202000367e-2 4.769884660878980e-2 4.829882423940263e-2 4.890634865956758e-2
      4.952151479621133e-2 5.014441877029424e-2 5.077515791182967e-2 5.141383077509170e-2
      5.206053715401458e-2 5.271537809778575e-2 5.337845592663493e-2 5.404987424782201e-2
      5.472973797182562e-2 5.541815332873586e-2 5.611522788485281e-2 5.682107055949405e-2
      5.753579164201364e-2 5.825950280903474e-2 5.899231714189965e-2 5.973434914433877e-2
      6.048571476036214e-2 6.124653139237600e-2 6.201691791952694e-2 6.279699471627723e-2
      6.358688367121340e-2 6.438670820609167e-2 6.519659329512297e-2 6.601666548450014e-2
      6.684705291217120e-2 6.768788532786118e-2 6.853929411334565e-2 6.940141230297968e-2
      7.027437460448431e-2 7.115831741999521e-2 7.205337886737571e-2 7.295969880179792e-2
      7.387741883759562e-2 7.480668237039147e-2 7.574763459950308e-2 7.670042255063063e-2
      7.766519509882985e-2 7.864210299177449e-2 7.963129887331004e-2 8.063293730730569e-2
      8.164717480180473e-2 8.267416983347889e-2 8.371408287239158e-2 8.476707640707053e-2
      8.583331496989805e-2 8.691296516281902e-2 8.800619568337231e-2 8.911317735105129e-2
      9.023408313399340e-2 9.136908817600785e-2 9.251836982394181e-2 9.368210765539066e-2
      9.486048350675860e-2 9.605368150166944e-2 9.726188807973767e-2 9.848529202569935e-2
      9.972408449890974e-2 1.009784590632135e-1 1.022486117171880e-1 1.035347409247697e-1
      1.048370476462642e-1 1.061557353697458e-1 1.074910101428547e-1 1.088430806049903e-1
      1.102121580199135e-1 1.115984563087558e-1 1.130021920834451e-1 1.144235846805523e-1
      1.158628561955622e-1 1.173202315175775e-1 1.187959383644575e-1 1.202902073183989e-1
      1.218032718619664e-1 1.233353684145727e-1 1.248867363694216e-1 1.264576181309125e-1
      1.280482591525161e-1 1.296589079751288e-1 1.312898162659054e-1 1.329412388575848e-1
      1.346134337883070e-1 1.363066623419315e-1 1.380211890888652e-1 1.397572819274002e-1
      1.415152121255747e-1 1.432952543635589e-1 1.450976867765737e-1 1.469227909983512e-1
      1.487708522051386e-1 1.506421591602597e-1 1.525370042592337e-1 1.544556835754619e-1
      1.563984969064916e-1 1.583657478208578e-1 1.603577437055187e-1 1.623747958138842e-1
      1.644172193144494e-1 1.664853333400423e-1 1.685794610376862e-1 1.706999296190949e-1
      1.728470704117986e-1 1.750212189109139e-1 1.772227148315678e-1 1.794519021619762e-1
      1.817091292171951e-1 1.839947486935447e-1 1.863091177237175e-1 1.886525979325839e-1
      1.910255554936935e-1 1.934283611864935e-1 1.958613904542624e-1 1.983250234627724e-1
      2.008196451596943e-1 2.033456453347428e-1 2.059034186805847e-1 2.084933648545096e-1
      2.111158885408758e-1 2.137713995143453e-1 2.164603127039100e-1 2.191830482577265e-1
      2.219400316087651e-1 2.247316935412826e-1 2.275584702581366e-1 2.304208034489393e-1
      2.333191403590756e-1 2.362539338595850e-1 2.392256425179219e-1 2.422347306696109e-1
      2.452816684907971e-1 2.483669320717143e-1 2.514910034910747e-1 2.546543708913925e-1
      2.578575285552609e-1 2.611009769825808e-1 2.643852229687683e-1 2.677107796839410e-1
      2.710781667531008e-1 2.744879103373289e-1 2.779405432159967e-1 2.814366048700166e-1
      2.849766415661350e-1 2.885612064422872e-1 2.921908595940288e-1 2.958661681620484e-1
      2.995877064207877e-1 3.033560558681717e-1 3.071718053164672e-1 3.110355509842900e-1
      3.149478965897601e-1 3.189094534448389e-1 3.229208405508454e-1 3.269826846951749e-1
      3.310956205492401e-1 3.352602907676347e-1 3.394773460885541e-1 3.437474454354725e-1
      3.480712560200993e-1 3.524494534466362e-1 3.568827218173375e-1 3.613717538394063e-1
      3.659172509332298e-1 3.705199233419752e-1 3.751804902425723e-1 3.798996798580796e-1
      3.846782295714774e-1 3.895168860408790e-1 3.944164053162027e-1 3.993775529573042e-1
      4.044011041535945e-1 4.094878438451699e-1 4.146385668454550e-1 4.198540779653984e-1
      4.251351921392243e-1 4.304827345517655e-1 4.358975407674051e-1 4.413804568606293e-1
      4.469323395482335e-1 4.525540563231838e-1 4.582464855901621e-1 4.640105168028245e-1
      4.698470506027732e-1 4.757569989602898e-1 4.817412853168300e-1 4.878008447293103e-1
      4.939366240162189e-1 5.001495819055512e-1 5.064406891846184e-1 5.128109288517331e-1
      5.192612962698019e-1 5.257927993218592e-1 5.324064585685433e-1 5.391033074075681e-1
      5.458843922351905e-1 5.527507726097091e-1 5.597035214170292e-1 5.667437250382951e-1
      5.738724835196477e-1 5.810909107441037e-1 5.884001346056010e-1 5.958012971852410e-1
      6.032955549297322e-1 6.108840788320955e-1 6.185680546146307e-1 6.263486829141849e-1
      6.342271794697618e-1 6.422047753124750e-1 6.502827169579065e-1 6.584622666008743e-1
      6.667447023126492e-1 6.751313182406643e-1 6.836234248107186e-1 6.922223489317423e-1
      7.009294342031249e-1 7.097460411246528e-1 7.186735473090970e-1 7.277133476974599e-1
      7.368668547769447e-1 7.461354988016570e-1 7.555207280160801e-1 7.650240088813759e-1
      7.746468263045116e-1 7.843906838702885e-1 7.942571040762769e-1 8.042476285707044e-1
      8.143638183933518e-1 8.246072542194581e-1 8.349795366067127e-1 8.454822862453423e-1
      8.561171442113436e-1 8.668857722229131e-1 8.777898529000838e-1 8.888310900276474e-1
      9.000112088213704e-1 9.113319561975571e-1 9.227951010460206e-1 9.344024345064621e-1
      9.461557702483518e-1 9.580569447543132e-1 9.701078176070729e-1 9.823102717800351e-1
      9.946662139314871e-1 1.007177574702530e0 1.019846309018740e0 1.032674396395627e0
      1.045663841247944e0 1.058816673202874e0 1.072134947417172e0 1.085620744898280e0
      1.099276172829490e0 1.113103364899201e0 1.127104481634301e0 1.141281710737770e0
      1.155637267430498e0 1.170173394797423e0 1.184892364138023e0 1.199796475321200e0
      1.214888057144651e0 1.230169467698742e0 1.245643094734957e0 1.261311356039008e0
      1.277176699808596e0 1.293241605035965e0 1.309508581895243e0 1.325980172134656e0
      1.342658949473696e0 1.359547520005249e0 1.376648522602823e0 1.393964629332870e0
      1.411498545872291e0 1.429253011931223e0 1.447230801681105e0 1.465434724188163e0
      1.483867623852328e0 1.502532380851670e0 1.521431911592448e0 1.540569169164788e0
      1.559947143804121e0 1.579568863358414e0 1.599437393761262e0 1.619555839510968e0
      1.639927344155607e0 1.660555090784228e0 1.681442302524213e0 1.702592243044885e0
      1.724008217067487e0 1.745693570881525e0 1.767651692867654e0 1.789886014027112e0
      1.812400008517810e0 1.835197194197199e0 1.858281133171915e0 1.881655432354392e0
      1.905323744026435e0 1.929289766409890e0 1.953557244244521e0 1.978129969373104e0
      2.003011781333939e0 2.028206567960769e0 2.053718265990259e0 2.079550861677136e0
      2.105708391417024e0 2.132194942377169e0 2.159014653135048e0 2.186171714325025e0
      2.213670369293171e0 2.241514914760261e0 2.269709701493181e0 2.298259134984723e0
      2.327167676141947e0 2.356439841983232e0 2.386080206344036e0 2.416093400591600e0
      2.446484114348590e0 2.477257096225854e0 2.508417154564426e0 2.539969158186809e0
      2.571918037157766e0 2.604268783554641e0 2.637026452247368e0 2.670196161688336e0
      2.703783094712119e0 2.737792499345339e0 2.772229689626670e0 2.807100046437144e0
      2.842409018340970e0 2.878162122436832e0 2.914364945219991e0 2.951023143455167e0
      2.988142445060407e0 3.025728650002115e0 3.063787631201273e0 3.102325335451131e0
      3.141347784346389e0 3.180861075224067e0 3.220871382116266e0 3.261384956714830e0
      3.302408129348219e0 3.343947309970626e0 3.386008989163524e0 3.428599739149873e0
      3.471726214820999e0 3.515395154776473e0 3.559613382377013e0 3.604387806810633e0
      3.649725424172258e0 3.695633318556828e0 3.742118663166246e0 3.789188721430190e0
      3.836850848141015e0 3.885112490603003e0 3.933981189795963e0 3.983464581553576e0
      4.033570397756486e0 4.084306467540401e0 4.135680718519462e0 4.187701178024891e0
      4.240375974359331e0 4.293713338066885e0 4.347721603219132e0 4.402409208717398e0
      4.457784699611289e0 4.513856728433927e0 4.570634056553905e0 4.628125555544239e0
      4.686340208568628e0 4.745287111785032e0 4.804975475767013e0 4.865414626942890e0
      4.926614009052981e0 4.988583184625270e0 5.051331836469498e0 5.114869769190190e0
      5.179206910718611e0 5.244353313864000e0 5.310319157884409e0 5.377114750077157e0
      5.444750527389428e0 5.513237058049046e0 5.582585043215741e0 5.652805318653307e0
      5.723908856422624e0 5.795906766596140e0 5.868810298993810e0 5.942630844940875e0
      6.017379939047850e0 6.093069261012745e0 6.169710637446117e0 6.247316043718977e0
      6.325897605833919e0 6.405467602319923e0 6.486038466150803e0 6.567622786687967e0
      6.650233311647494e0 6.733882949091960e0 6.818584769447424e0 6.904352007545622e0
      6.991198064692011e0 7.079136510759723e0 7.168181086309845e0 7.258345704738494e0
      7.349644454450713e0 7.442091601061908e0 7.535701589626836e0 7.630489046896632e0
      7.726468783604371e0 7.823655796779159e0 7.922065272089542e0 8.021712586216273e0
      8.122613309254884e0 8.224783207148667e0 8.328238244152004e0 8.432994585324924e0
      8.539068599058874e0 8.646476859634282e0 8.755236149810417e0 8.865363463447611e0
      8.976876008162691e0 9.089791208017658e0 9.204126706242187e0 9.319900367990524e0
      9.437130283132825e0 9.555834769081859e0 9.676032373655072e0 9.797741877972697e0
      9.920982299392431e0 1.004577289448082e1 1.017213316202226e1 1.030008284606565e1
      1.042964193900940e1 1.056083068472541e1 1.069366958172206e1 1.082817938634730e1
      1.096438111603178e1 1.110229605257282e1 1.124194574545990e1 1.138335201524160e1
      1.152653695693529e1 1.167152294347944e1 1.181833262922939e1 1.196698895349727e1
      1.211751514413613e1 1.226993472116954e1 1.242427150046653e1 1.258054959746283e1
      1.273879343092907e1 1.289902772678616e1 1.306127752196883e1 1.322556816833770e1
      1.339192533664049e1 1.356037502052323e1 1.373094354059170e1 1.390365754852421e1
      1.407854403123591e1 1.425563031509549e1 1.443494407019513e1 1.461651331467384e1
      1.480036641909549e1 1.498653211088173e1 1.517503947880060e1 1.536591797751193e1
      1.555919743216941e1 1.575490804308111e1 1.595308039042817e1 1.615374543904301e1
      1.635693454324777e1 1.656267945175333e1 1.677101231262025e1 1.698196567828195e1
      1.719557251063092e1 1.741186618616937e1 1.763088050122411e1 1.785264967722745e1
      1.807720836606440e1 1.830459165548688e1 1.853483507459655e1 1.876797459939599e1
      1.900404665841034e1 1.924308813837913e1 1.948513639001987e1 1.973022923386441e1
      1.997840496616817e1 2.022970236489427e1 2.048416069577257e1 2.074181971843490e1
      2.100271969262783e1 2.126690138450306e1 2.153440607298747e1 2.180527555623291e1
      2.207955215814714e1 2.235727873500733e1 2.263849868215606e1 2.292325594078226e1
      2.321159500478697e1 2.350356092773550e1 2.379919932989739e1 2.409855640537439e1
      2.440167892931862e1 2.470861426524120e1 2.501941037241274e1 2.533411581335741e1
      2.565277976144053e1 2.597545200855235e1 2.630218297288803e1 2.663302370682538e1
      2.696802590490228e1 2.730724191189365e1 2.765072473099076e1 2.799852803208298e1
      2.835070616014361e1 2.870731414372177e1 2.906840770354032e1 2.943404326120268e1
      2.980427794800869e1 3.017916961388129e1 3.055877683640612e1 3.094315892998389e1
      3.133237595509882e1 3.172648872770301e1 3.212555882871888e1 3.252964861366175e1
      3.293882122238253e1 3.335314058893387e1 3.377267145155978e1 3.419747936281096e1
      3.462763069978795e1 3.506319267451220e1 3.550423334442845e1 3.595082162303876e1
      3.640302729067012e1 3.686092100537824e1 3.732457431398752e1 3.779405966327079e1
      3.826945041126912e1 3.875082083875395e1 3.923824616083407e1 3.973180253870757e1
      4.023156709156273e1 4.073761790862778e1 4.125003406137230e1 4.176889561586284e1
      4.229428364527275e1 4.282628024255064e1 4.336496853324723e1 4.391043268850378e1
      4.446275793820447e1 4.502203058429309e1 4.558833801425854e1 4.616176871478901e1
      4.674241228559792e1 4.733035945342472e1 4.792570208621039e1 4.852853320745264e1
      4.913894701074070e1 4.975703887447306e1 5.038290537676113e1 5.101664431051906e1
      5.165835469874466e1 5.230813680999178e1 5.296609217403710e1 5.363232359774506e1
      5.430693518113088e1 5.499003233362707e1 5.568172179055357e1 5.638211162979509e1
      5.709131128868917e1 5.780943158112517e1 5.853658471485994e1 5.927288430905010e1
      6.001844541200509e1 6.077338451916425e1 6.153781959129886e1 6.231187007294427e1
      6.309565691106317e1 6.388930257394343e1 6.469293107033477e1 6.550666796882453e1
      6.633064041745877e1 6.716497716360909e1 6.800980857408931e1 6.886526665552639e1
      6.973148507498575e1 7.060859918085787e1 7.149674602400644e1 7.239606437918240e1
      7.330669476670868e1 7.422877947443574e1 7.516246257997532e1 7.610788997321236e1
      7.706520937910028e1 7.803457038074423e1 7.901612444277259e1 8.001002493500467e1
      8.101642715641466e1 8.203548835939690e1 8.306736777433795e1 8.411222663449545e1
      8.517022820119223e1 8.624153778932580e1 8.732632279319857e1 8.842475271267471e1
      8.953699917966359e1 9.066323598493874e1 9.180363910529250e1 9.295838673103225e1
      9.412765929382417e1 9.531163949488480e1 9.651051233352957e1 9.772446513607877e1
      9.895368758512729e1
      </PP_R>
    <PP_RAB>
      3.256721305551844e-7 3.297685816675080e-7 3.339165597916365e-7 3.381167130575907e-7
      3.423696977478643e-7 3.466761783999674e-7 3.510368279102638e-7 3.554523276391111e-7
      3.599233675173252e-7 3.644506461539838e-7 3.690348709455846e-7 3.736767581865781e-7
      3.783770331812893e-7 3.831364303572488e-7 3.879556933799492e-7 3.928355752690423e-7
      3.977768385160011e-7 4.027802552032616e-7 4.078466071248598e-7 4.129766859085921e-7
      4.181712931397051e-7 4.234312404861475e-7 4.287573498253932e-7 4.341504533728624e-7
      4.396113938119576e-7 4.451410244257320e-7 4.507402092302195e-7 4.564098231094373e-7