<UPF version="2.0.1">
  <PP_INFO>
Generated using "atomic" code by A. Dal Corso  v.6.2.2
Author: ADC
Generation date:  4May2018
Pseudopotential type: PAW
Element: Os
Functional:  SLA  PZ   NOGX NOGC
    Suggested minimum cutoff for wavefunctions:  54. Ry
    Suggested minimum cutoff for charge density: 268. Ry
    The Pseudo was generated with a Scalar-Relativistic Calculation
    Local Potential by smoothing AE potential with Bessel fncs, cutoff radius:   2.1000
    Pseudopotential contains additional information for GIPAW reconstruction.
    Valence configuration:
    nl pn  l   occ       Rcut    Rcut US       E pseu
    5S  1  0  2.00      1.000      1.300    -6.749793
    6S  2  0  2.00      1.000      1.300    -0.469407
    5P  2  1  6.00      1.100      1.300    -3.752240
    5D  3  2  6.00      1.500      1.700    -0.474975
    Generation configuration:
    5S  1  0  2.00      1.000      1.300    -6.749893
    6S  2  0  2.00      1.000      1.300    -0.469417
    5P  2  1  6.00      1.100      1.300    -3.752320
    6P  3  1  0.00      1.100      1.300    -2.400000
    5D  3  2  6.00      1.500      1.700    -0.475011
    5D  3  2  0.00      1.500      1.700     0.050000
    Pseudization used: troullier-martins

    <PP_INPUTFILE>
 &amp;input
   title='Os',
   zed=76.,
   rel=1,
   config='[Xe] 4f14 6s2 6p0 5d6',
   iswitch=3,
   dft='LDA'
 /
 &amp;inputp
   lpaw=.true.,
   use_xsd=.FALSE.,
   pseudotype=3,
   file_pseudopw='Os.pz-spn-kjpaw_psl.1.0.0.UPF',
   author='ADC',
   lloc=-1,
   rcloc=2.1,
   which_augfun='PSQ',
   rmatch_augfun_nc=.true.,
   nlcc=.true.,
   new_core_ps=.true.,
   rcore=1.2,
   tm=.true.
 /
6
5S  1  0  2.00  0.00  1.00  1.30  0.0
6S  2  0  2.00  0.00  1.00  1.30  0.0
5P  2  1  6.00  0.00  1.10  1.30  0.0
6P  3  1  0.00 -2.40  1.10  1.30  0.0
5D  3  2  6.00  0.00  1.50  1.70  0.0
5D  3  2  0.00  0.05  1.50  1.70  0.0
</PP_INPUTFILE>
  </PP_INFO>
  <!--
 END OF HUMAN READABLE SECTION 
-->
  <PP_HEADER generated="Generated using &quot;atomic&quot; code by A. Dal Corso  v.6.2.2" author="ADC" date=" 4May2018" comment="" element="Os" pseudo_type="PAW" relativistic="scalar" is_ultrasoft="true" is_paw="true" is_coulomb="false" has_so="false" has_wfc="true" has_gipaw="true" paw_as_gipaw="true" core_correction="true" functional=" SLA  PZ   NOGX NOGC" z_valence="1.600000000000e1" total_psenergy="-8.129817497391e2" wfc_cutoff="5.385197631778e1" rho_cutoff="2.683872603902e2" l_max="2" l_max_rho="4" l_local="-1" mesh_size="1275" number_of_wfc="4" number_of_proj="6"/>
  <PP_MESH dx="1.250000000000e-2" mesh="1275" xmin="-7.000000000000e0" rmax="1.000000000000e2" zmesh="7.600000000000e1">
    <PP_R>
      1.199844691519100e-5 1.214936879827661e-5 1.230218904495503e-5 1.245693153370071e-5
      1.261362044334237e-5 1.277228025684091e-5 1.293293576511498e-5 1.309561207091462e-5
      1.326033459274356e-5 1.342712906883098e-5 1.359602156115312e-5 1.376703845950551e-5
      1.394020648562645e-5 1.411555269737233e-5 1.429310449294550e-5 1.447288961517524e-5
      1.465493615585267e-5 1.483927256012016e-5 1.502592763091589e-5 1.521493053347444e-5
      1.540631079988387e-5 1.560009833370017e-5 1.579632341461974e-5 1.599501670321072e-5
      1.619620924570370e-5 1.639993247884275e-5 1.660621823479756e-5 1.681509874613716e-5
      1.702660665086642e-5 1.724077499752578e-5 1.745763725035515e-5 1.767722729452272e-5
      1.789957944141966e-5 1.812472843402128e-5 1.835270945231577e-5 1.858355811880108e-5
      1.881731050405098e-5 1.905400313235126e-5 1.929367298740662e-5 1.953635751811957e-5
      1.978209464444174e-5 2.003092276329910e-5 2.028288075459145e-5 2.053800798726753e-5
      2.079634432547654e-5 2.105793013479690e-5 2.132280628854351e-5 2.159101417415429e-5
      2.186259569965702e-5 2.213759330021766e-5 2.241604994477072e-5 2.269800914273345e-5
      2.298351495080421e-5 2.327261197984632e-5 2.356534540185881e-5 2.386176095703441e-5
      2.416190496090667e-5 2.446582431158686e-5 2.477356649709181e-5 2.508517960276416e-5
      2.540071231878565e-5 2.572021394778509e-5 2.604373441254205e-5 2.637132426378735e-5
      2.670303468810176e-5 2.703891751591394e-5 2.737902522959908e-5 2.772341097167939e-5
      2.807212855312773e-5 2.842523246177572e-5 2.878277787082744e-5 2.914482064748048e-5
      2.951141736165530e-5 2.988262529483431e-5 3.025850244901231e-5 3.063910755575939e-5
      3.102450008539781e-5 3.141474025629438e-5 3.180988904426978e-5 3.221000819212608e-5
      3.261516021929419e-5 3.302540843160262e-5 3.344081693116918e-5 3.386145062641710e-5
      3.428737524221708e-5 3.471865733015687e-5 3.515536427894013e-5 3.559756432491615e-5
      3.604532656274169e-5 3.649872095617748e-5 3.695781834901990e-5 3.742269047617063e-5
      3.789340997484531e-5 3.837005039592326e-5 3.885268621544009e-5 3.934139284622448e-5
      3.983624664968178e-5 4.033732494772556e-5 4.084470603485934e-5 4.135846919041025e-5
      4.187869469091668e-5 4.240546382267140e-5 4.293885889442301e-5 4.347896325023660e-5
      4.402586128251674e-5 4.457963844519357e-5 4.514038126707545e-5 4.570817736536913e-5
      4.628311545937011e-5 4.686528538432539e-5 4.745477810547014e-5 4.805168573224136e-5
      4.865610153267016e-5 4.926811994795500e-5 4.988783660721852e-5 5.051534834244952e-5
      5.115075320363330e-5 5.179415047407216e-5 5.244564068589856e-5 5.310532563578365e-5
      5.377330840084299e-5 5.444969335474259e-5 5.513458618400763e-5 5.582809390453605e-5
      5.653032487832026e-5 5.724138883037853e-5 5.796139686590007e-5 5.869046148760528e-5
      5.942869661332456e-5 6.017621759379833e-5 6.093314123070060e-5 6.169958579488961e-5
      6.247567104488787e-5 6.326151824559457e-5 6.405725018723373e-5 6.486299120454015e-5
      6.567886719618707e-5 6.650500564445807e-5 6.734153563516645e-5 6.818858787782532e-5
      6.904629472607083e-5 6.991479019834310e-5 7.079420999882659e-5 7.168469153865429e-5
      7.258637395737856e-5 7.349939814471185e-5 7.442390676254091e-5 7.536004426721822e-5
      7.630795693213344e-5 7.726779287056910e-5 7.823970205884336e-5 7.922383635974418e-5
      8.022034954625839e-5 8.122939732559869e-5 8.225113736353368e-5 8.328572930902299e-5
      8.433333481916293e-5 8.539411758444590e-5 8.646824335433699e-5 8.755587996317335e-5
      8.865719735638772e-5 8.977236761706353e-5 9.090156499282276e-5 9.204496592305278e-5
      9.320274906647532e-5 9.437509532906184e-5 9.556218789230119e-5 9.676421224182153e-5
      9.798135619637288e-5 9.921380993717470e-5 1.004617660376311e-4 1.017254194934220e-4
      1.030049677529707e-4 1.043006107482960e-4 1.056125509262521e-4 1.069409932801607e-4
      1.082861453818425e-4 1.096482174140501e-4 1.110274222033096e-4 1.124239752531756e-4
      1.138380947779031e-4 1.152700017365451e-4 1.167199198674771e-4 1.181880757233568e-4
      1.196746987065240e-4 1.211800211048439e-4 1.227042781280043e-4 1.242477079442660e-4
      1.258105517176777e-4 1.273930536457591e-4 1.289954609976556e-4 1.306180241527765e-4
      1.322609966399156e-4 1.339246351768667e-4 1.356091997105362e-4 1.373149534575593e-4
      1.390421629454297e-4 1.407910980541438e-4 1.425620320583704e-4 1.443552416701512e-4
      1.461710070821356e-4 1.480096120113640e-4 1.498713437435971e-4 1.517564931782056e-4
      1.536653548736244e-4 1.555982270933766e-4 1.575554118526792e-4 1.595372149656329e-4
      1.615439460930058e-4 1.635759187906196e-4 1.656334505583421e-4 1.677168628896983e-4
      1.698264813221036e-4 1.719626354877300e-4 1.741256591650124e-4 1.763158903308004e-4
      1.785336712131702e-4 1.807793483448966e-4 1.830532726176002e-4 1.853557993365755e-4
      1.876872882763060e-4 1.900481037366826e-4 1.924386145999240e-4 1.948591943882158e-4
      1.973102213220752e-4 1.997920783794466e-4 2.023051533555452e-4 2.048498389234485e-4
      2.074265326954538e-4 2.100356372852056e-4 2.126775603706036e-4 2.153527147575057e-4
      2.180615184442271e-4 2.208043946868547e-4 2.235817720653826e-4 2.263940845506761e-4
      2.292417715722831e-4 2.321252780870942e-4 2.350450546488688e-4 2.380015574786357e-4
      2.409952485359760e-4 2.440265955912090e-4 2.470960722984791e-4 2.502041582697665e-4
      2.533513391498280e-4 2.565381066920789e-4 2.597649588354314e-4 2.630323997820978e-4
      2.663409400763736e-4 2.696910966844113e-4 2.730833930749966e-4 2.765183593013425e-4
      2.799965320839102e-4 2.835184548942733e-4 2.870846780400365e-4 2.906957587508217e-4
      2.943522612653369e-4 2.980547569195391e-4 3.018038242359069e-4 3.056000490138365e-4
      3.094440244211725e-4 3.133363510868931e-4 3.172776371949588e-4 3.212684985793426e-4
      3.253095588202553e-4 3.294014493415809e-4 3.335448095095387e-4 3.377402867325847e-4
      3.419885365625703e-4 3.462902227971751e-4 3.506460175836248e-4 3.550566015237170e-4
      3.595226637801653e-4 3.640449021842839e-4 3.686240233450239e-4 3.732607427593829e-4
      3.779557849242031e-4 3.827098834493747e-4 3.875237811724644e-4 3.923982302747857e-4
      3.973339923989277e-4 4.023318387677644e-4 4.073925503049591e-4 4.125169177569854e-4
      4.177057418166836e-4 4.229598332483694e-4 4.282800130145189e-4 4.336671124040443e-4
      4.391219731621854e-4 4.446454476220336e-4 4.502383988377111e-4 4.559017007192240e-4
      4.616362381690136e-4 4.674429072202232e-4 4.733226151767061e-4 4.792762807547926e-4
      4.853048342268423e-4 4.914092175666003e-4 4.975903845963828e-4 5.038493011361140e-4
      5.101869451542369e-4 5.166043069205239e-4 5.231023891608068e-4 5.296822072136560e-4
      5.363447891890293e-4 5.430911761289153e-4 5.499224221699990e-4 5.568395947083726e-4
      5.638437745663182e-4 5.709360561611891e-4 5.781175476764134e-4 5.853893712346517e-4
      5.927526630731292e-4 6.002085737211765e-4 6.077582681800015e-4 6.154029261047235e-4
      6.231437419886966e-4 6.309819253501509e-4 6.389187009211837e-4 6.469553088391261e-4
      6.550930048403149e-4 6.633330604563076e-4 6.716767632125581e-4 6.801254168295976e-4
      6.886803414267419e-4 6.973428737283658e-4 7.061143672727649e-4 7.149961926236513e-4
      7.239897375843061e-4 7.330964074144263e-4 7.423176250497018e-4 7.516548313241485e-4
      7.611094851952433e-4 7.706830639718888e-4 7.803770635452465e-4 7.901929986224729e-4
      8.001324029633944e-4 8.101968296201608e-4 8.203878511799140e-4 8.307070600105050e-4
      8.411560685093100e-4 8.517365093551652e-4 8.624500357634783e-4 8.732983217445478e-4
      8.842830623651285e-4 8.954059740132919e-4 9.066687946666129e-4 9.180732841637324e-4
      9.296212244793372e-4 9.413144200025949e-4 9.531546978190981e-4 9.651439079963438e-4
      9.772839238728148e-4 9.895766423506899e-4 1.002023984192241e-3 1.014627894319957e-3
      1.027390342120436e-3 1.040313321752114e-3 1.053398852456850e-3 1.066648978875437e-3
      1.080065771367089e-3 1.093651326332929e-3 1.107407766543558e-3 1.121337241470748e-3
      1.135441927623296e-3 1.149724028887110e-3 1.164185776869570e-3 1.178829431248220e-3
      1.193657280123849e-3 1.208671640378012e-3 1.223874858035046e-3 1.239269308628641e-3
      1.254857397573022e-3 1.270641560538801e-3 1.286624263833553e-3 1.302808004787188e-3
      1.319195312142154e-3 1.335788746448567e-3 1.352590900464296e-3 1.369604399560087e-3
      1.386831902129794e-3 1.404276100005740e-3 1.421939718879333e-3 1.439825518726960e-3
      1.457936294241236e-3 1.476274875267681e-3 1.494844127246892e-3 1.513646951662269e-3
      1.532686286493382e-3 1.551965106675034e-3 1.571486424562100e-3 1.591253290400220e-3
      1.611268792802394e-3 1.631536059231596e-3 1.652058256489438e-3 1.672838591210994e-3
      1.693880310365845e-3 1.715186701765417e-3 1.736761094576714e-3 1.758606859842507e-3
      1.780727411008062e-3 1.803126204454506e-3 1.825806740038885e-3 1.848772561641029e-3
      1.872027257717285e-3 1.895574461861227e-3 1.919417853371413e-3 1.943561157826275e-3
      1.968008147666252e-3 1.992762642783246e-3 2.017828511117480e-3 2.043209669261882e-3
      2.068910083074048e-3 2.094933768295925e-3 2.121284791181274e-3 2.147967269131032e-3
      2.174985371336665e-3 2.202343319431613e-3 2.230045388150923e-3 2.258095905999195e-3
      2.286499255926910e-3 2.315259876015283e-3 2.344382260169717e-3 2.373870958821986e-3
      2.403730579641247e-3 2.433965788254003e-3 2.464581308973120e-3 2.495581925535991e-3
      2.526972481852030e-3 2.558757882759522e-3 2.590943094792027e-3 2.623533146954410e-3
      2.656533131508625e-3 2.689948204769397e-3 2.723783587909905e-3 2.758044567777602e-3
      2.792736497720304e-3 2.827864798422640e-3 2.863434958753065e-3 2.899452536621499e-3
      2.935923159847761e-3 2.972852527040933e-3 3.010246408489770e-3 3.048110647064328e-3
      3.086451159128919e-3 3.125273935466555e-3 3.164585042215029e-3 3.204390621814748e-3
      3.244696893968508e-3 3.285510156613338e-3 3.326836786904559e-3 3.368683242212238e-3
      3.411056061130152e-3 3.453961864497466e-3 3.497407356433247e-3 3.541399325383999e-3
      3.585944645184377e-3 3.631050276131226e-3 3.676723266071150e-3 3.722970751501750e-3
      3.769799958686712e-3 3.817218204784938e-3 3.865232898993854e-3 3.913851543707114e-3
      3.963081735686873e-3 4.012931167250780e-3 4.063407627473946e-3 4.114519003405973e-3
      4.166273281303334e-3 4.218678547877248e-3 4.271742991557233e-3 4.325474903770582e-3
      4.379882680237889e-3 4.434974822284926e-3 4.490759938170972e-3 4.547246744433875e-3
      4.604444067252045e-3 4.662360843823537e-3 4.721006123762523e-3 4.780389070513310e-3
      4.840518962782136e-3 4.901405195987013e-3 4.963057283725751e-3 5.025484859262487e-3
      5.088697677032914e-3 5.152705614168408e-3 5.217518672039381e-3 5.283146977817985e-3
      5.349600786060518e-3 5.416890480309720e-3 5.485026574717216e-3 5.554019715686389e-3
      5.623880683535879e-3 5.694620394184047e-3 5.766249900854598e-3 5.838780395803682e-3
      5.912223212068707e-3 5.986589825239127e-3 6.061891855249552e-3 6.138141068195377e-3
      6.215349378171247e-3 6.293528849132686e-3 6.372691696781088e-3 6.452850290472451e-3
      6.534017155150130e-3 6.616204973301853e-3 6.699426586941437e-3 6.783694999615318e-3
      6.869023378434425e-3 6.955425056131547e-3 7.042913533144608e-3 7.131502479726148e-3
      7.221205738079297e-3 7.312037324520681e-3 7.404011431670474e-3 7.497142430670039e-3
      7.591444873427457e-3 7.686933494891263e-3 7.783623215352833e-3 7.881529142777708e-3
      7.980666575166230e-3 8.081051002943919e-3 8.182698111381846e-3 8.285623783047505e-3
      8.389844100286496e-3 8.495375347735422e-3 8.602234014866415e-3 8.710436798563608e-3
      8.820000605732101e-3 8.930942555939668e-3 9.043279984091740e-3 9.157030443140028e-3
      9.272211706825182e-3 9.388841772453985e-3 9.506938863711484e-3 9.626521433508445e-3
      9.747608166864710e-3 9.870217983828713e-3 9.994370042433802e-3 1.012008374169172e-2
      1.024737872462375e-2 1.037627488132996e-2 1.050679235209707e-2 1.063895153054543e-2
      1.077277306681556e-2 1.090827787079474e-2 1.104548711538431e-2 1.118442223980787e-2
      1.132510495296129e-2 1.146755723680472e-2 1.161180134979731e-2 1.175785983037521e-2
      1.190575550047316e-2 1.205551146909050e-2 1.220715113590202e-2 1.236069819491416e-2
      1.251617663816729e-2 1.267361075948450e-2 1.283302515826754e-2 1.299444474334055e-2
      1.315789473684210e-2 1.332340067816624e-2 1.349098842795301e-2 1.366068417212928e-2
      1.383251442600033e-2 1.400650603839289e-2 1.418268619585042e-2 1.436108242688095e-2
      1.454172260625853e-2 1.472463495937870e-2 1.490984806666877e-2 1.509739086805358e-2
      1.528729266747741e-2 1.547958313748278e-2 1.567429232384683e-2 1.587145065027606e-2
      1.607108892316013e-2 1.627323833638533e-2 1.647793047620875e-2 1.668519732619369e-2
      1.689507127220713e-2 1.710758510748015e-2 1.732277203773187e-2 1.754066568635794e-2
      1.776130009968426e-2 1.798470975228679e-2 1.821092955237831e-2 1.843999484726282e-2
      1.867194142885866e-2 1.890680553929112e-2 1.914462387655528e-2 1.938543360025021e-2
      1.962927233738514e-2 1.987617818825886e-2 2.012618973241289e-2 2.037934603465964e-2
      2.063568665118644e-2 2.089525163573611e-2 2.115808154586557e-2 2.142421744928304e-2
      2.169370093026485e-2 2.196657409615320e-2 2.224287958393542e-2 2.252266056690612e-2
      2.280596076141311e-2 2.309282443368814e-2 2.338329640676367e-2 2.367742206747644e-2
      2.397524737355934e-2 2.427681886082238e-2 2.458218365042399e-2 2.489138945623382e-2
      2.520448459228812e-2 2.552151798033888e-2 2.584253915749801e-2 2.616759828397753e-2
      2.649674615092733e-2 2.683003418837126e-2 2.716751447324326e-2 2.750923973752444e-2
      2.785526337648256e-2 2.820563945701526e-2 2.856042272609794e-2 2.891966861933819e-2
      2.928343326963775e-2 2.965177351596327e-2 3.002474691222768e-2 3.040241173628295e-2
      3.078482699902621e-2 3.117205245362028e-2 3.156414860483023e-2 3.196117671847748e-2
      3.236319883101251e-2 3.277027775920832e-2 3.318247710997566e-2 3.359986129030167e-2
      3.402249551731376e-2 3.445044582846976e-2 3.488377909187643e-2 3.532256301673779e-2
      3.576686616393481e-2 3.621675795673825e-2 3.667230869165595e-2 3.713358954941710e-2
      3.760067260609429e-2 3.807363084436528e-2 3.855253816491717e-2 3.903746939799301e-2
      3.952850031508464e-2 4.002570764077192e-2 4.052916906471093e-2 4.103896325377362e-2
      4.155516986433907e-2 4.207786955474044e-2 4.260714399786794e-2 4.314307589392992e-2
      4.368574898337568e-2 4.423524805997935e-2 4.479165898408971e-2 4.535506869604575e-2
      4.592556522976107e-2 4.650323772647991e-2 4.708817644870501e-2 4.768047279430185e-2
      4.828021931077956e-2 4.888750970975137e-2 4.950243888157782e-2 5.012510291019293e-2
      5.075559908811806e-2 5.139402593166388e-2 5.204048319632339e-2 5.269507189235959e-2
      5.335789430058783e-2 5.402905398835804e-2 5.470865582573698e-2 5.539680600189421e-2
      5.609361204169502e-2 5.679918282250060e-2 5.751362859118101e-2 5.823706098134127e-2
      5.896959303076401e-2 5.971133919907246e-2 6.046241538561434e-2 6.122293894757195e-2
      6.199302871829927e-2 6.277280502588951e-2 6.356238971197743e-2 6.436190615077640e-2
      6.517147926835676e-2 6.599123556216529e-2 6.682130312079054e-2 6.766181164397751e-2
      6.851289246289277e-2 6.937467856064591e-2 7.024730459306816e-2 7.113090690975220e-2
      7.202562357535797e-2 7.293159439118453e-2 7.384896091701520e-2 7.477786649323615e-2
      7.571845626323331e-2 7.667087719607211e-2 7.763527810946078e-2 7.861180969300424e-2
      7.960062453174936e-2 8.060187713002612e-2 8.161572393559041e-2 8.264232336406797e-2
      8.368183582370827e-2 8.473442374044820e-2 8.580025158329097e-2 8.687948589000571e-2
      8.797229529314830e-2 8.907885054641149e-2 9.019932455130505e-2 9.133389238417152e-2
      9.248273132354344e-2 9.364602087784206e-2 9.482394281342717e-2 9.601668118299784e-2
      9.722442235435068e-2 9.844735503950114e-2 9.968567032416907e-2 1.009395616976372e-1
      1.022092250829839e-1 1.034948588676959e-1 1.047966639346682e-1 1.061148436935905e-1
      1.074496041127322e-1 1.088011537511247e-1 1.101697037911482e-1 1.115554680715313e-1
      1.129586631207618e-1 1.143795081909211e-1 1.158182252919423e-1 1.172750392262992e-1
      1.187501776241333e-1 1.202438709788201e-1 1.217563526829854e-1 1.232878590649728e-1
      1.248386294257701e-1 1.264089060764015e-1 1.279989343757880e-1 1.296089627690866e-1
      1.312392428265096e-1 1.328900292826323e-1 1.345615800761975e-1 1.362541563904170e-1
      1.379680226937838e-1 1.397034467813949e-1 1.414606998167941e-1 1.432400563743441e-1
      1.450417944821264e-1 1.468661956653864e-1 1.487135449905209e-1 1.505841311096200e-1
      1.524782463055711e-1 1.543961865377265e-1 1.563382514881499e-1 1.583047446084413e-1
      1.602959731671510e-1 1.623122482977930e-1 1.643538850474581e-1 1.664212024260424e-1
      1.685145234560927e-1 1.706341752232781e-1 1.727804889275004e-1 1.749537999346420e-1
      1.771544478289699e-1 1.793827764661943e-1 1.816391340271986e-1 1.839238730724427e-1
      1.862373505970501e-1 1.885799280865914e-1 1.909519715735648e-1 1.933538516945913e-1
      1.957859437483270e-1 1.982486277541025e-1 2.007422885113050e-1 2.032673156595004e-1
      2.058241037393180e-1 2.084130522540978e-1 2.110345657323115e-1 2.136890537907744e-1
      2.163769311986456e-1 2.190986179422387e-1 2.218545392906454e-1 2.246451258621824e-1
      2.274708136916798e-1 2.303320442986091e-1 2.332292647560742e-1 2.361629277606665e-1
      2.391334917031982e-1 2.421414207403298e-1 2.451871848670923e-1 2.482712599903274e-1
      2.513941280030483e-1 2.545562768597345e-1 2.577582006525792e-1 2.610003996886886e-1
      2.642833805682588e-1 2.676076562637320e-1 2.709737461999478e-1 2.743821763353083e-1
      2.778334792439556e-1 2.813281941989914e-1 2.848668672567378e-1 2.884500513420589e-1
      2.920783063347587e-1 2.957521991570609e-1 2.994723038621938e-1 3.032392017240868e-1
      3.070534813281937e-1 3.109157386634638e-1 3.148265772154625e-1 3.187866080606708e-1
      3.227964499619654e-1 3.268567294653006e-1 3.309680809976105e-1 3.351311469659355e-1
      3.393465778578035e-1 3.436150323428683e-1 3.479371773758264e-1 3.523136883006337e-1
      3.567452489560250e-1 3.612325517823697e-1 3.657762979298644e-1 3.703771973680875e-1
      3.750359689969384e-1 3.797533407589610e-1 3.845300497530913e-1 3.893668423498287e-1
      3.942644743078556e-1 3.992237108921311e-1 4.042453269934597e-1 4.093301072495745e-1
      4.144788461677364e-1 4.196923482488750e-1 4.249714281132990e-1 4.303169106279760e-1
      4.357296310354251e-1 4.412104350842232e-1 4.467601791611521e-1 4.523797304250163e-1
      4.580699669421322e-1 4.638317778235336e-1 4.696660633638936e-1 4.755737351821964e-1
      4.815557163641847e-1 4.876129416065868e-1 4.937463573631710e-1 4.999569219926290e-1
      5.062456059083176e-1 5.126133917298951e-1 5.190612744368494e-1 5.255902615239728e-1
      5.322013731587820e-1 5.388956423409184e-1 5.456741150635632e-1 5.525378504768685e-1
      5.594879210534577e-1 5.665254127559995e-1 5.736514252068883e-1 5.808670718600697e-1
      5.881734801750112e-1 5.955717917928785e-1 6.030631627149146e-1 6.106487634830655e-1
      6.183297793628862e-1 6.261074105287330e-1 6.339828722513002e-1 6.419573950875062e-1
      6.500322250727656e-1 6.582086239156949e-1 6.664878691952456e-1 6.748712545603382e-1
      6.833600899319933e-1 6.919557017080059e-1 7.006594329702064e-1 7.094726436943100e-1
      7.183967109624242e-1 7.274330291782169e-1 7.365830102847916e-1 7.458480839853141e-1
      7.552296979663979e-1 7.647293181243157e-1 7.743484287940455e-1 7.840885329811972e-1
      7.939511525968692e-1 8.039378286954392e-1 8.140501217153670e-1 8.242896117230121e-1
      8.346578986595176e-1 8.451566025908152e-1 8.557873639607502e-1 8.665518438474171e-1
      8.774517242227001e-1 8.884887082150808e-1 8.996645203757661e-1 9.109809069481400e-1
      9.224396361406297e-1 9.340424984029859e-1 9.457913067060403e-1 9.576878968249964e-1
      9.697341276262611e-1 9.819318813579066e-1 9.942830639437721e-1 1.006789605281262e0
      1.019453459542907e0 1.032276605481699e0 1.045261046740281e0 1.058408812164017e0
      1.071721956118002e0 1.085202558808067e0 1.098852726605806e0 1.112674592377711e0
      1.126670315818430e0 1.140842083788222e0 1.155192110654670e0 1.169722638638662e0
      1.184435938164761e0 1.199334308215953e0 1.214420076692867e0 1.229695600777523e0
      1.245163267301634e0 1.260825493119564e0 1.276684725485967e0 1.292743442438159e0
      1.309004153183341e0 1.325469398490646e0 1.342141751088154e0 1.359023816064880e0
      1.376118231277819e0 1.393427667764132e0 1.410954830158481e0 1.428702457115653e0
      1.446673321738469e0 1.464870232011083e0 1.483296031237754e0 1.501953598487093e0
      1.520845849041943e0 1.539975734854893e0 1.559346245009517e0 1.578960406187442e0
      1.598821283141250e0 1.618931979173376e0 1.639295636620993e0 1.659915437347002e0
      1.680794603237224e0 1.701936396703802e0 1.723344121194982e0 1.745021121711271e0
      1.766970785328099e0 1.789196541725067e0 1.811701863721825e0 1.834490267820726e0
      1.857565314756276e0 1.880930610051500e0 1.904589804581330e0 1.928546595143042e0
      1.952804725033903e0 1.977367984636066e0 2.002240212008811e0 2.027425293488275e0
      2.052927164294672e0 2.078749809147203e0 2.104897262886667e0 2.131373611105899e0
      2.158182990788184e0 2.185329590953633e0 2.212817653313756e0 2.240651472934226e0
      2.268835398905978e0 2.297373835024795e0 2.326271240479375e0 2.355532130548114e0
      2.385161077304624e0 2.415162710332105e0 2.445541717446767e0 2.476302845430270e0
      2.507450900771447e0 2.538990750417324e0 2.570927322533565e0 2.603265607274549e0
      2.636010657563050e0 2.669167589879801e0 2.702741585062939e0 2.736737889117508e0
      2.771161814035194e0 2.806018738624290e0 2.841314109350185e0 2.877053441186371e0
      2.913242318476147e0 2.949886395805228e0 2.986991398885238e0 3.024563125448406e0
      3.062607446153451e0 3.101130305502876e0 3.140137722771840e0 3.179635792948642e0
      3.219630687687111e0 3.260128656270926e0 3.301136026590060e0 3.342659206129569e0
      3.384704682970723e0 3.427279026804826e0 3.470388889959727e0 3.514041008439239e0
      3.558242202975698e0 3.602999380095665e0 3.648319533199131e0 3.694209743652231e0
      3.740677181893696e0 3.787729108555307e0 3.835372875596317e0 3.883615927452266e0
      3.932465802198165e0 3.981930132726314e0 4.032016647939008e0 4.082733173956137e0
      4.134087635338082e0 4.186088056323922e0 4.238742562085218e0 4.292059379995636e0
      4.346046840916433e0 4.400713380498225e0 4.456067540499046e0 4.512117970119005e0
      4.568873427351777e0 4.626342780353011e0 4.684535008826042e0 4.743459205424970e0
      4.803124577175381e0 4.863540446913016e0 4.924716254740424e0 4.986661559502046e0
      5.049386040277793e0 5.112899497895379e0 5.177211856461795e0 5.242333164913894e0
      5.308273598588620e0 5.375043460812901e0 5.442653184513537e0 5.511113333847426e0
      5.580434605852165e0 5.650627832117552e0 5.721703980478008e0 5.793674156726301e0
      5.866549606348915e0 5.940341716283098e0 6.015062016696170e0 6.090722182787100e0
      6.167334036610750e0 6.244909548925170e0 6.323460841061966e0 6.403000186820358e0
      6.483540014384958e0 6.565092908267657e0 6.647671611274072e0 6.731289026494530e0
      6.815958219320289e0 6.901692419485006e0 6.988505023131857e0 7.076409594906808e0
      7.165419870078019e0 7.255549756682089e0 7.346813337697184e0 7.439224873243488e0
      7.532798802811472e0 7.627549747517979e0 7.723492512390906e0 7.820642088682477e0
      7.919013656211608e0 8.018622585735896e0 8.119484441353208e0 8.221614982933698e0
      8.325030168582291e0 8.429746157132117e0 8.535779310669460e0 8.643146197090259e0
      8.751863592688972e0 8.861948484779861e0 8.973418074351256e0 9.086289778753347e0
      9.200581234419550e0 9.316310299622360e0 9.433495057263684e0 9.552153817700281e0
      9.672305121604920e0 9.793967742863250e0 9.917160691507386e0 1.004190321668621e1
      1.016821480967303e1 1.029611520691127e1 1.042562439309819e1 1.055676260430762e1
      1.068955033115189e1 1.082400832198345e1 1.096015758613696e1 1.109801939721189e1
      1.123761529639673e1 1.137896709583476e1 1.152209688203218e1 1.166702701930933e1
      1.181378015329498e1 1.196237921446490e1 1.211284742172475e1 1.226520828603801e1
      1.241948561409973e1 1.257570351205628e1 1.273388638927206e1 1.289405896214348e1
      1.305624625796087e1 1.322047361881924e1 1.338676670557778e1 1.355515150186966e1
      1.372565431816190e1 1.389830179586638e1 1.407312091150281e1 1.425013898091363e1
      1.442938366353235e1 1.461088296670533e1 1.479466525006790e1 1.498075922997580e1
      1.516919398399195e1 1.535999895543007e1 1.555320395795516e1 1.574883918024189e1
      1.594693519069182e1 1.614752294220956e1 1.635063377703942e1 1.655629943166258e1
      1.676455204175597e1 1.697542414721366e1 1.718894869723109e1 1.740515905545365e1
      1.762408900518973e1 1.784577275468932e1 1.807024494248937e1 1.829754064282586e1
      1.852769537111442e1 1.876074508949964e1 1.899672621247409e1 1.923567561256841e1
      1.947763062611245e1 1.972262905906937e1 1.997070919294280e1 2.022190979075832e1
      2.047627010312048e1 2.073382987434550e1 2.099462934867170e1 2.125870927654757e1
      2.152611092099904e1 2.179687606407717e1 2.207104701338637e1 2.234866660869530e1
      2.262977822863058e1 2.291442579745470e1 2.320265379192947e1 2.349450724826535e1
      2.379003176915873e1 2.408927353091727e1 2.439227929067498e1 2.469909639369838e1
      2.500977278078396e1 2.532435699574931e1 2.564289819301809e1 2.596544614530037e1
      2.629205125137001e1 2.662276454393922e1 2.695763769763287e1 2.729672303706255e1
      2.764007354500234e1 2.798774287066775e1 2.833978533809816e1 2.869625595464539e1
      2.905721041956857e1 2.942270513273711e1 2.979279720344364e1 3.016754445932709e1
      3.054700545540864e1 3.093123948324102e1 3.132030658017271e1 3.171426753872926e1
      3.211318391611185e1 3.251711804381612e1 3.292613303737140e1 3.334029280620242e1
      3.375966206361584e1 3.418430633691119e1 3.461429197762021e1 3.504968617187411e1
      3.549055695090145e1 3.593697320165853e1 3.638900467759263e1 3.684672200954163e1
      3.731019671676991e1 3.777950121814331e1 3.825470884344511e1 3.873589384483343e1
      3.922313140844379e1 3.971649766613688e1 4.021606970739407e1 4.072192559136335e1
      4.123414435905560e1 4.175280604569547e1 4.227799169322681e1 4.280978336297538e1
      4.334826414847166e1 4.389351818843380e1 4.444563067991494e1 4.500468789161522e1
      4.557077717736124e1 4.614398698975578e1 4.672440689399806e1 4.731212758187906e1
      4.790724088595208e1 4.850983979388150e1 4.912001846297283e1 4.973787223488436e1
      5.036349765052509e1 5.099699246513913e1 5.163845566357994e1 5.228798747577752e1
      5.294568939239885e1 5.361166418070659e1 5.428601590061643e1 5.496884992095639e1