<UPF version="2.0.1">
  <PP_INFO>
Generated using "atomic" code by A. Dal Corso  v.6.2.2
Author: ADC
Generation date:  4May2018
Pseudopotential type: PAW
Element: La
Functional:  SLA  PZ   NOGX NOGC
    Suggested minimum cutoff for wavefunctions:  75. Ry
    Suggested minimum cutoff for charge density: 537. Ry
    The Pseudo was generated with a Scalar-Relativistic Calculation
    Local Potential by smoothing AE potential with Bessel fncs, cutoff radius:   2.0000
    Pseudopotential contains additional information for GIPAW reconstruction.
    Valence configuration:
    nl pn  l   occ       Rcut    Rcut US       E pseu
    5S  1  0  2.00      1.600      1.700    -2.912848
    6S  2  0  1.50      1.600      1.700    -0.304724
    5P  2  1  6.00      1.600      2.000    -1.692774
    6P  3  1  0.50      1.600      2.000    -0.124063
    5D  3  2  1.00      1.600      2.000    -0.269251
    4F  4  3  0.00      1.000      1.500    -0.378301
    Generation configuration:
    5S  1  0  2.00      1.600      1.700    -2.912878
    6S  2  0  1.50      1.600      1.700    -0.304731
    5P  2  1  6.00      1.600      2.000    -1.692795
    6P  3  1  0.50      1.600      2.000    -0.124066
    5D  3  2  1.00      1.600      2.000    -0.269265
    5D  3  2 -2.00      1.600      2.000     2.000000
    4F  4  3  0.00      1.000      1.500    -0.378368
    4F  4  3 -2.00      1.000      1.500     0.200000
    Pseudization used: troullier-martins

    <PP_INPUTFILE>
 &amp;input
   title='La',
   zed=57.0,
   rel=1,
   config='[Xe] 4f0.0 5d1.0 6s1.5 6p0.5',
   iswitch=3,
   dft='LDA'
 /
 &amp;inputp
   lpaw=.true.,
   use_xsd=.FALSE.,
   pseudotype=3,
   file_pseudopw='La.pz-spfn-kjpaw_psl.1.0.0.UPF',
   author='ADC',
   lloc=-1,
   rcloc=2.0,
   which_augfun='PSQ',
   rmatch_augfun_nc=.true.,
   nlcc=.true.,
   new_core_ps=.true.,
   rcore=1.1,
   tm=.true.
 /
8
5S  1  0  2.00  0.00  1.60  1.70  0.0
6S  2  0  1.50  0.00  1.60  1.70  0.0
5P  2  1  6.00  0.00  1.60  2.00  0.0
6P  3  1  0.50  0.00  1.60  2.00  0.0
5D  3  2  1.00  0.00  1.60  2.00  0.0
5D  3  2 -2.00  2.00  1.60  2.00  0.0
4F  4  3  0.00  0.00  1.00  1.50  0.0
4F  4  3 -2.00  0.20  1.00  1.50  0.0
</PP_INPUTFILE>
  </PP_INFO>
  <!--
 END OF HUMAN READABLE SECTION 
-->
  <PP_HEADER generated="Generated using &quot;atomic&quot; code by A. Dal Corso  v.6.2.2" author="ADC" date=" 4May2018" comment="" element="La" pseudo_type="PAW" relativistic="scalar" is_ultrasoft="true" is_paw="true" is_coulomb="false" has_so="false" has_wfc="true" has_gipaw="true" paw_as_gipaw="true" core_correction="true" functional=" SLA  PZ   NOGX NOGC" z_valence="1.100000000000e1" total_psenergy="-4.448495737556e2" wfc_cutoff="7.506336568152e1" rho_cutoff="5.373132415717e2" l_max="3" l_max_rho="6" l_local="-1" mesh_size="1253" number_of_wfc="6" number_of_proj="8"/>
  <PP_MESH dx="1.250000000000e-2" mesh="1253" xmin="-7.000000000000e0" rmax="1.000000000000e2" zmesh="5.700000000000e1">
    <PP_R>
      1.599792922025467e-5 1.619915839770214e-5 1.640291872660671e-5 1.660924204493428e-5
      1.681816059112315e-5 1.702970700912121e-5 1.724391435348664e-5 1.746081609455283e-5
      1.768044612365808e-5 1.790283875844131e-5 1.812802874820416e-5 1.835605127934068e-5
      1.858694198083527e-5 1.882073692982977e-5 1.905747265726067e-5 1.929718615356699e-5
      1.953991487447023e-5 1.978569674682688e-5 2.003457017455451e-5 2.028657404463259e-5
      2.054174773317849e-5 2.080013111160023e-5 2.106176455282633e-5 2.132668893761430e-5
      2.159494566093827e-5 2.186657663845701e-5 2.214162431306341e-5 2.242013166151622e-5
      2.270214220115523e-5 2.298769999670105e-5 2.327684966714020e-5 2.356963639269696e-5
      2.386610592189287e-5 2.416630457869504e-5 2.447027926975437e-5 2.477807749173477e-5
      2.508974733873464e-5 2.540533750980168e-5 2.572489731654216e-5 2.604847669082609e-5
      2.637612619258899e-5 2.670789701773213e-5 2.704384100612194e-5 2.738401064969004e-5
      2.772845910063539e-5 2.807724017972919e-5 2.843040838472468e-5 2.878801889887239e-5
      2.915012759954271e-5 2.951679106695686e-5 2.988806659302762e-5 3.026401219031127e-5
      3.064468660107227e-5 3.103014930646176e-5 3.142046053581176e-5 3.181568127604588e-5
      3.221587328120890e-5 3.262109908211581e-5 3.303142199612241e-5 3.344690613701889e-5
      3.386761642504753e-5 3.429361859704678e-5 3.472497921672274e-5 3.516176568504980e-5
      3.560404625080235e-5 3.605189002121858e-5 3.650536697279877e-5 3.696454796223920e-5
      3.742950473750364e-5 3.790030994903430e-5 3.837703716110324e-5 3.885976086330731e-5
      3.934855648220708e-5 3.984350039311240e-5 4.034466993201642e-5 4.085214340767918e-5
      4.136600011386374e-5 4.188632034172585e-5 4.241318539235969e-5 4.294667758950144e-5
      4.348688029239225e-5 4.403387790880348e-5 4.458775590822559e-5 4.514860083522281e-5
      4.571650032295612e-5 4.629154310687583e-5 4.687381903858685e-5 4.746341909988818e-5
      4.806043541698891e-5 4.866496127490332e-5 4.927709113202654e-5 4.989692063489416e-5
      5.052454663312707e-5 5.116006719456434e-5 5.180358162058678e-5 5.245519046163263e-5
      5.311499553290904e-5 5.378309993030076e-5 5.445960804647911e-5 5.514462558721370e-5
      5.583825958788891e-5 5.654061843022853e-5 5.725181185923067e-5 5.797195100031547e-5
      5.870114837668896e-5 5.943951792692477e-5 6.018717502276727e-5 6.094423648715884e-5
      6.171082061249347e-5 6.248704717910051e-5 6.327303747396019e-5 6.406891430965514e-5
      6.487480204356022e-5 6.569082659727333e-5 6.651711547629137e-5 6.735379778993268e-5
      6.820100427151105e-5 6.905886729876286e-5 6.992752091453140e-5 7.080710084771155e-5
      7.169774453445731e-5 7.259959113965677e-5 7.351278157867684e-5 7.443745853938141e-5
      7.537376650442701e-5 7.632185177383804e-5 7.728186248786677e-5 7.825394865014039e-5
      7.923826215109941e-5 8.023495679173111e-5 8.124418830760082e-5 8.226611439318617e-5
      8.330089472651714e-5 8.434869099412607e-5 8.540966691631164e-5 8.648398827272018e-5
      8.757182292824941e-5 8.867334085927745e-5 8.978871418022194e-5 9.091811717043377e-5
      9.206172630142778e-5 9.321972026445746e-5 9.439227999843547e-5 9.557958871820569e-5
      9.678183194317141e-5 9.799919752628245e-5 9.923187568338790e-5 1.004800590229576e-4
      1.017439425761779e-4 1.030237238274255e-4 1.043196027451245e-4 1.056317818129922e-4
      1.069604660616778e-4 1.083058631007983e-4 1.096681831513783e-4 1.110476390786973e-4
      1.124444464255506e-4 1.138588234459279e-4 1.152909911391160e-4 1.167411732842311e-4
      1.182095964751837e-4 1.196964901560847e-4 1.212020866570970e-4 1.227266212307371e-4
      1.242703320886338e-4 1.258334604387491e-4 1.274162505230683e-4 1.290189496557621e-4
      1.306418082618305e-4 1.322850799162329e-4 1.339490213835081e-4 1.356338926578960e-4
      1.373399570039609e-4 1.390674809977279e-4 1.408167345683361e-4 1.425879910402142e-4
      1.443815271757900e-4 1.461976232187335e-4 1.480365629377462e-4 1.498986336709008e-4
      1.517841263705374e-4 1.536933356487268e-4 1.556265598233028e-4 1.575841009644757e-4
      1.595662649420320e-4 1.615733614731252e-4 1.636057041706724e-4 1.656636105923546e-4
      1.677474022902369e-4 1.698574048610122e-4 1.719939479968742e-4 1.741573655370353e-4
      1.763479955198874e-4 1.785661802358223e-4 1.808122662807149e-4 1.830866046100791e-4
      1.853895505939062e-4 1.877214640721917e-4 1.900827094111606e-4 1.924736555602016e-4
      1.948946761095142e-4 1.973461493484853e-4 1.998284583247961e-4 2.023419909042741e-4
      2.048871398314992e-4 2.074643027911688e-4 2.100738824702390e-4 2.127162866208439e-4
      2.153919281240077e-4 2.181012250541595e-4 2.208446007444561e-4 2.236224838529310e-4
      2.264353084294715e-4 2.292835139836400e-4 2.321675455533498e-4 2.350878537744005e-4
      2.380448949508936e-4 2.410391311265289e-4 2.440710301568003e-4 2.471410657821006e-4
      2.502497177017413e-4 2.533974716489102e-4 2.565848194665654e-4 2.598122591842877e-4
      2.630802950961002e-4 2.663894378392622e-4 2.697402044740602e-4 2.731331185645981e-4
      2.765687102606051e-4 2.800475163802741e-4 2.835700804941381e-4 2.871369530100075e-4
      2.907486912589694e-4 2.944058595824729e-4 2.981090294205103e-4 3.018587794009014e-4
      3.056556954297108e-4 3.095003707827924e-4 3.133934061984918e-4 3.173354099715142e-4
      3.213269980479680e-4 3.253687941216121e-4 3.294614297313054e-4 3.336055443596886e-4
      3.378017855331040e-4 3.420508089227719e-4 3.463532784472418e-4 3.507098663761304e-4
      3.551212534351647e-4 3.595881289125483e-4 3.641111907666621e-4 3.686911457351234e-4
      3.733287094452136e-4 3.780246065256977e-4 3.827795707200487e-4 3.875943450010956e-4
      3.924696816871159e-4 3.974063425593855e-4 4.024050989812094e-4 4.074667320184488e-4
      4.125920325615634e-4 4.177818014491908e-4 4.230368495932785e-4 4.283579981057900e-4
      4.337460784270070e-4 4.392019324554411e-4 4.447264126793850e-4 4.503203823101129e-4
      4.559847154167604e-4 4.617202970629002e-4 4.675280234448332e-4 4.734088020316226e-4
      4.793635517068871e-4 4.853932029123786e-4 4.914986977933654e-4 4.976809903458439e-4
      5.039410465656041e-4 5.102798445991662e-4 5.166983748966192e-4 5.231976403663809e-4
      5.297786565319035e-4 5.364424516903526e-4 5.431900670732789e-4 5.500225570093138e-4
      5.569409890889116e-4 5.639464443311591e-4 5.710400173526918e-4 5.782228165387258e-4
      5.854959642162471e-4 5.928605968293782e-4 6.003178651169481e-4 6.078689342922987e-4
      6.155149842253515e-4 6.232572096269644e-4 6.310968202356081e-4 6.390350410063901e-4
      6.470731123024562e-4 6.552122900888003e-4 6.634538461285102e-4 6.717990681814854e-4
      6.802492602056494e-4 6.888057425606985e-4 6.974698522144092e-4 7.062429429515413e-4
      7.151263855853724e-4 7.241215681718868e-4 7.332298962266652e-4 7.424527929444968e-4
      7.517916994217576e-4 7.612480748815854e-4 7.708233969018845e-4 7.805191616462023e-4
      7.903368840975058e-4 8.002780982949018e-4 8.103443575733355e-4 8.205372348062980e-4
      8.308583226515953e-4 8.413092338002013e-4 8.518916012282451e-4 8.626070784521682e-4
      8.734573397870868e-4 8.844440806084100e-4 8.955690176167440e-4 9.068338891061302e-4
      9.182404552356559e-4 9.297904983044878e-4 9.414858230303532e-4 9.533282568315348e-4
      9.653196501124079e-4 9.774618765525684e-4 9.897568333996027e-4 1.002206441765532e-3
      1.014812646926991e-3 1.027577418629185e-3 1.040502751393662e-3 1.053590664829964e-3
      1.066843203951193e-3 1.080262439493548e-3 1.093850468239885e-3 1.107609413347340e-3
      1.121541424679080e-3 1.135648679140220e-3 1.149933381017971e-3 1.164397762326064e-3
      1.179044083153505e-3 1.193874632017723e-3 1.208891726222150e-3 1.224097712218310e-3
      1.239494965972449e-3 1.255085893336793e-3 1.270872930425464e-3 1.286858543995125e-3
      1.303045231830419e-3 1.319435523134254e-3 1.336031978922988e-3 1.352837192426609e-3
      1.369853789493915e-3 1.387084429002819e-3 1.404531803275800e-3 1.422198638500583e-3
      1.440087695156119e-3 1.458201768443905e-3 1.476543688724743e-3 1.495116321960998e-3
      1.513922570164395e-3 1.532965371849481e-3 1.552247702492760e-3 1.571772574997626e-3
      1.591543040165133e-3 1.611562187170683e-3 1.631833144046728e-3 1.652359078171521e-3
      1.673143196764029e-3 1.694188747385068e-3 1.715499018444738e-3 1.737077339716251e-3
      1.758927082856206e-3 1.781051661931422e-3 1.803454533952394e-3 1.826139199413450e-3
      1.849109202839725e-3 1.872368133340986e-3 1.895919625172444e-3 1.919767358302613e-3
      1.943915058988315e-3 1.968366500356908e-3 1.993125502995855e-3 2.018195935549692e-3
      2.043581715324509e-3 2.069286808900046e-3 2.095315232749467e-3 2.121671053866960e-3
      2.148358390403192e-3 2.175381412308794e-3 2.202744341985918e-3 2.230451454947992e-3
      2.258507080487793e-3 2.286915602353889e-3 2.315681459435619e-3 2.344809146456676e-3
      2.374303214677416e-3 2.404168272606008e-3 2.434408986718514e-3 2.465030082188038e-3
      2.496036343623047e-3 2.527432615814970e-3 2.559223804495217e-3 2.591414877101699e-3
      2.624010863555002e-3 2.657016857044328e-3 2.690438014823306e-3 2.724279559015842e-3
      2.758546777432064e-3 2.793245024394567e-3 2.828379721575033e-3 2.863956358841375e-3
      2.899980495115553e-3 2.936457759242150e-3 2.973393850867898e-3 3.010794541332261e-3
      3.048665674569213e-3 3.087013168020378e-3 3.125843013559622e-3 3.165161278429313e-3
      3.204974106188330e-3 3.245287717672005e-3 3.286108411964159e-3 3.327442567381322e-3
      3.369296642469372e-3 3.411677177012696e-3 3.454590793056036e-3 3.498044195939214e-3
      3.542044175344833e-3 3.586597606359195e-3 3.631711450546540e-3 3.677392757036804e-3
      3.723648663627071e-3 3.770486397896854e-3 3.817913278337421e-3 3.865936715495333e-3
      3.914564213130348e-3 3.963803369387911e-3 4.013661877986360e-3 4.064147529419103e-3
      4.115268212171891e-3 4.167031913955405e-3 4.219446722953371e-3 4.272520829086329e-3
      4.326262525291344e-3 4.380680208817784e-3 4.435782382539411e-3 4.491577656282983e-3
      4.548074748173536e-3 4.605282485996621e-3 4.663209808577664e-3 4.721865767178665e-3
      4.781259526912502e-3 4.841400368174969e-3 4.902297688094867e-3 4.963961002002335e-3
      5.026399944915615e-3 5.089624273046585e-3 5.153643865325139e-3 5.218468724942820e-3
      5.284108980915829e-3 5.350574889667707e-3 5.417876836631929e-3 5.486025337874629e-3
      5.555031041737778e-3 5.624904730502998e-3 5.695657322076311e-3 5.767299871694108e-3
      5.839843573650521e-3 5.913299763046568e-3 5.987679917561296e-3 6.062995659245168e-3
      6.139258756336061e-3 6.216481125098049e-3 6.294674831683365e-3 6.373852094017746e-3
      6.454025283709514e-3 6.535206927982684e-3 6.617409711634334e-3 6.700646479016652e-3
      6.784930236043884e-3 6.870274152224543e-3 6.956691562719175e-3 7.044195970423979e-3
      7.132801048080689e-3 7.222520640412960e-3 7.313368766289621e-3 7.405359620915185e-3
      7.498507578047839e-3 7.592827192245394e-3 7.688333201139464e-3 7.785040527738243e-3
      7.882964282758275e-3 7.982119766985502e-3 8.082522473666071e-3 8.184188090927170e-3
      8.287132504228328e-3 8.391371798843583e-3 8.496922262374785e-3 8.603800387296603e-3
      8.712022873533506e-3 8.821606631069139e-3 8.932568782588582e-3 9.044926666153758e-3
      9.158697837912566e-3 9.273900074842064e-3 9.390551377526146e-3 9.508669972968196e-3
      9.628274317439065e-3 9.749383099360907e-3 9.872015242227299e-3 9.996189907560051e-3
      1.012192649790328e-2 1.024924465985502e-2 1.037816428713711e-2 1.050870552370361e-2
      1.064088876688831e-2 1.077473467059189e-2 1.091026414850913e-2 1.104749837739667e-2
      1.118645880038200e-2 1.132716713031390e-2 1.146964535315522e-2 1.161391573141814e-2
      1.176000080764280e-2 1.190792340791956e-2 1.205770664545565e-2 1.220937392418670e-2
      1.236294894243357e-2 1.251845569660532e-2 1.267591848494865e-2 1.283536191134460e-2
      1.299681088915295e-2 1.316029064510495e-2 1.332582672324507e-2 1.349344498892230e-2
      1.366317163283166e-2 1.383503317510661e-2 1.400905646946276e-2 1.418526870739391e-2
      1.436369742242074e-2 1.454437049439299e-2 1.472731615384575e-2 1.491256298641050e-2
      1.510013993728172e-2 1.529007631573962e-2 1.548240179972974e-2 1.567714644050028e-2
      1.587434066729754e-2 1.607401529212067e-2 1.627620151453603e-2 1.648093092655221e-2
      1.668823551755639e-2 1.689814767931267e-2 1.711070021102339e-2 1.732592632445407e-2
      1.754385964912281e-2 1.776453423755499e-2 1.798798457060402e-2 1.821424556283904e-2
      1.844335256800044e-2 1.867534138452385e-2 1.891024826113389e-2 1.914810990250793e-2
      1.938896347501137e-2 1.963284661250493e-2 1.987979742222502e-2 2.012985449073811e-2
      2.038305688996989e-2 2.063944418331037e-2 2.089905643179577e-2 2.116193420036809e-2
      2.142811856421351e-2 2.169765111518044e-2 2.197057396827833e-2 2.224692976825825e-2
      2.252676169627617e-2 2.281011347664020e-2 2.309702938364250e-2 2.338755424847725e-2
      2.368173346624569e-2 2.397961300304906e-2 2.428123940317108e-2 2.458665979635041e-2
      2.489592190514488e-2 2.520907405238817e-2 2.552616516874038e-2 2.584724480033361e-2
      2.617236311651352e-2 2.650157091767848e-2 2.683491964321719e-2 2.717246137954619e-2
      2.751424886824858e-2 2.786033551431481e-2 2.821077539448743e-2 2.856562326571072e-2
      2.892493457368646e-2 2.928876546153760e-2 2.965717277858056e-2 3.003021408920816e-2
      3.040794768188415e-2 3.079043257825085e-2 3.117772854235156e-2 3.156989608996858e-2
      3.196699649807913e-2 3.236909181442984e-2 3.277624486723197e-2 3.318851927497843e-2
      3.360597945638415e-2 3.402869064045184e-2 3.445671887666401e-2 3.489013104530337e-2
      3.532899486790311e-2 3.577337891782835e-2 3.622335263099101e-2 3.667898631669924e-2
      3.714035116864342e-2 3.760751927602035e-2 3.808056363479725e-2 3.855955815911760e-2
      3.904457769285033e-2 3.953569802128436e-2 4.003299588297025e-2 4.053654898171061e-2
      4.104643599870162e-2 4.156273660482704e-2 4.208553147310698e-2 4.261490229130331e-2
      4.315093177468334e-2 4.369370367894442e-2 4.424330281330087e-2 4.479981505373556e-2
      4.536332735641835e-2 4.593392777129301e-2 4.651170545583523e-2 4.709675068898372e-2
      4.768915488524641e-2 4.828901060898433e-2 4.889641158887460e-2 4.951145273255613e-2
      5.013423014145905e-2 5.076484112582037e-2 5.140338421988956e-2 5.204995919732402e-2
      5.270466708677951e-2 5.336761018769590e-2 5.403889208628124e-2 5.471861767169816e-2
      5.540689315245208e-2 5.610382607298726e-2 5.680952533049057e-2 5.752410119190657e-2
      5.824766531116756e-2 5.898033074663913e-2 5.972221197878627e-2 6.047342492806100e-2
      6.123408697301476e-2 6.200431696863989e-2 6.278423526494001e-2 6.357396372573580e-2
      6.437362574770608e-2 6.518334627966849e-2 6.600325184210377e-2 6.683347054692391e-2
      6.767413211749075e-2 6.852536790888517e-2 6.938731092843118e-2 7.026009585647945e-2
      7.114385906745046e-2 7.203873865114407e-2 7.294487443431596e-2 7.386240800252562e-2
      7.479148272226004e-2 7.573224376333414e-2 7.668483812157467e-2 7.764941464178837e-2
      7.862612404101867e-2 7.961511893209662e-2 8.061655384748578e-2 8.163058526342926e-2
      8.265737162439903e-2 8.369707336785268e-2 8.474985294930324e-2 8.581587486770188e-2
      8.689530569114233e-2 8.798831408288708e-2 8.909507082772073e-2 9.021574885863670e-2
      9.135052328385703e-2 9.249957141419456e-2 9.366307279075754e-2 9.484120921300294e-2
      9.603416476714395e-2 9.724212585491273e-2 9.846528122268692e-2 9.970382199098154e-2
      1.009579416843111e-1 1.022278362614295e-1 1.035137041459477e-1 1.048157462573390e-1
      1.061341660423325e-1 1.074691695067015e-1 1.088209652474539e-1 1.101897644854240e-1
      1.115757810982777e-1 1.129792316539310e-1 1.144003354443879e-1 1.158393145200076e-1
      1.172963937241977e-1 1.187718007285486e-1 1.202657660684067e-1 1.217785231788953e-1
      1.233103084313912e-1 1.248613611704561e-1 1.264319237512362e-1 1.280222415773305e-1
      1.296325631391342e-1 1.312631400526682e-1 1.329142270988921e-1 1.345860822635163e-1
      1.362789667773119e-1 1.379931451569279e-1 1.397288852462242e-1 1.414864582581206e-1
      1.432661388169763e-1 1.450682050014995e-1 1.468929383881976e-1 1.487406240953751e-1
      1.506115508276824e-1 1.525060109212281e-1 1.544243003892564e-1 1.563667189683989e-1
      1.583335701655110e-1 1.603251613050934e-1 1.623418035773138e-1 1.643838120866304e-1
      1.664515059010268e-1 1.685452081018686e-1 1.706652458343840e-1 1.728119503587821e-1
      1.749856571020127e-1 1.771867057101764e-1 1.794154401015966e-1 1.816722085205560e-1
      1.839573635917118e-1 1.862712623751932e-1 1.886142664223922e-1 1.909867418324588e-1
      1.933890593095019e-1 1.958215942205151e-1 1.982847266540279e-1 2.007788414794934e-1
      2.033043284074281e-1 2.058615820503020e-1 2.084510019841999e-1 2.110729928112551e-1
      2.137279642228680e-1 2.164163310637239e-1 2.191385133966107e-1 2.218949365680565e-1
      2.246860312747902e-1 2.275122336310374e-1 2.303739852366672e-1 2.332717332461893e-1
      2.362059304386265e-1 2.391770352882590e-1 2.421855120362648e-1 2.452318307632570e-1
      2.483164674627335e-1 2.514399041154553e-1 2.546026287647531e-1 2.578051355927884e-1
      2.610479249977693e-1 2.643315036721367e-1 2.676563846817400e-1 2.710230875460005e-1
      2.744321383190908e-1 2.778840696721304e-1 2.813794209764154e-1 2.849187383876992e-1
      2.885025749315274e-1 2.921314905896516e-1 2.958060523875272e-1 2.995268344829098e-1
      3.032944182555731e-1 3.071093923981454e-1 3.109723530080990e-1 3.148839036808887e-1
      3.188446556042643e-1 3.228552276537731e-1 3.269162464894564e-1 3.310283466537699e-1
      3.351921706707310e-1 3.394083691463127e-1 3.436776008701056e-1 3.480005329182514e-1
      3.523778407576784e-1 3.568102083516425e-1 3.612983282665971e-1 3.658429017804111e-1
      3.704446389919408e-1 3.751042589319884e-1 3.798224896756505e-1 3.846000684560785e-1
      3.894377417796783e-1 3.943362655427478e-1 3.992964051495917e-1 4.043189356321158e-1
      4.094046417709249e-1 4.145543182179518e-1 4.197687696206167e-1 4.250488107475610e-1
      4.303952666159539e-1 4.358089726204008e-1 4.412907746634806e-1 4.468415292879139e-1
      4.524621038104046e-1 4.581533764571578e-1 4.639162365011018e-1 4.697515844008448e-1
      4.756603319413667e-1 4.816434023764930e-1 4.877017305731525e-1 4.938362631574500e-1
      5.000479586625845e-1 5.063377876786146e-1 5.127067330041218e-1 5.191557897997717e-1
      5.256859657438074e-1 5.322982811895081e-1 5.389937693246129e-1 5.457734763327659e-1
      5.526384615569818e-1 5.595897976651667e-1 5.666285708177320e-1 5.737558808373013e-1
      5.809728413805669e-1 5.882805801122977e-1 5.956802388815361e-1 6.031729739000217e-1
      6.107599559228429e-1 6.184423704313780e-1 6.262214178185247e-1 6.340983135762619e-1
      6.420742884855795e-1 6.501505888087824e-1 6.583284764842280e-1 6.666092293235053e-1
      6.749941412110902e-1 6.834845223065267e-1 6.920816992491324e-1 7.007870153652971e-1
      7.096018308783760e-1 7.185275231212246e-1 7.275654867514176e-1 7.367171339691581e-1
      7.459838947379436e-1 7.553672170079992e-1 7.648685669425177e-1 7.744894291467595e-1
      7.842313069000150e-1 7.940957223905047e-1 8.040842169532196e-1 8.141983513107538e-1
      8.244397058171815e-1 8.348098807049771e-1 8.453104963350670e-1 8.559431934500083e-1
      8.667096334303540e-1 8.776114985542598e-1 8.886504922603274e-1 8.998283394137843e-1
      9.111467865759909e-1 9.226076022773412e-1 9.342125772936086e-1 9.459635249257467e-1
      9.578622812832322e-1 9.699107055709559e-1 9.821106803797221e-1 9.944641119804189e-1
      1.006972930621864e0 1.019639090832421e0 1.032464571725394e0 1.045451377308263e0
      1.058601536795825e0 1.071917104927252e0 1.085400162287156e0 1.099052815630683e0
      1.112877198212690e0 1.126875470121087e0 1.141049818614334e0 1.155402458463223e0
      1.169935632296933e0 1.184651610953441e0 1.199552693834355e0 1.214641209264187e0
      1.229919514854173e0 1.245389997870648e0 1.261055075608054e0 1.276917195766662e0
      1.292978836835015e0 1.309242508477209e0 1.325710751925030e0 1.342386140375016e0
      1.359271279390543e0 1.376368807308933e0 1.393681395653708e0 1.411211749552023e0
      1.428962608157336e0 1.446936745077423e0 1.465136968807741e0 1.483566123170281e0
      1.502227087757906e0 1.521122778384296e0 1.540256147539560e0 1.559630184851550e0
      1.579247917553015e0 1.599112410954604e0 1.619226768923823e0 1.639594134370031e0
      1.660217689735511e0 1.681100657492753e0 1.702246300647955e0 1.723657923250878e0
      1.745338870911122e0 1.767292531320862e0 1.789522334784205e0 1.812031754753173e0
      1.834824308370425e0 1.857903557018842e0 1.881273106877975e0 1.904936609487537e0
      1.928897762317958e0 1.953160309348111e0 1.977728041650339e0 2.002604797982790e0
      2.027794465389257e0 2.053300979806525e0 2.079128326679357e0 2.105280541583256e0
      2.131761710854999e0 2.158575972231167e0 2.185727515494657e0 2.213220583129336e0
      2.241059470982965e0 2.269248528938403e0 2.297792161593309e0 2.326694828948362e0
      2.355961047104132e0 2.385595388966756e0 2.415602484962434e0 2.445987023760968e0
      2.476753753008368e0 2.507907480068666e0 2.539453072775107e0 2.571395460190722e0
      2.603739633378537e0 2.636490646181421e0 2.669653616011748e0 2.703233724651034e0
      2.737236219059563e0 2.771666412196271e0 2.806529683848889e0 2.841831481474532e0
      2.877577321050912e0 2.913772787938177e0 2.950423537751675e0 2.987535297245634e0
      3.025113865207971e0 3.063165113366394e0 3.101694987305833e0 3.140709507397486e0
      3.180214769739498e0 3.220216947109473e0 3.260722289929023e0 3.301737127240359e0
      3.343267867695263e0 3.385321000556432e0 3.427903096711420e0 3.471020809699399e0
      3.514680876750734e0 3.558890119839735e0 3.603655446750585e0 3.648983852156678e0
      3.694882418713592e0 3.741358318165720e0 3.788418812466914e0 3.836071254915161e0
      3.884323091301529e0 3.933181861073637e0 3.982655198513651e0 4.032750833931207e0
      4.083476594871268e0 4.134840407337168e0 4.186850297029120e0 4.239514390598189e0
      4.292840916916147e0 4.346838208361234e0 4.401514702120081e0 4.456878941506092e0
      4.512939577294298e0 4.569705369073102e0 4.627185186612969e0 4.685388011252318e0
      4.744322937300931e0 4.803999173460887e0 4.864426044265509e0 4.925612991536307e0
      4.987569575858262e0 5.050305478073742e0 5.113830500795090e0 5.178154569936355e0
      5.243287736264220e0 5.309240176968419e0 5.376022197252010e0 5.443644231941516e0
      5.512116847117443e0 5.581450741765229e0 5.651656749446957e0 5.722745839994181e0
      5.794729121221911e0 5.867617840664299e0 5.941423387332063e0 6.016157293492006e0
      6.091831236469035e0 6.168457040470681e0 6.246046678434722e0 6.324612273899960e0
      6.404166102900508e0 6.484720595884021e0 6.566288339653898e0 6.648882079336063e0
      6.732514720370391e0 6.817199330527171e0 6.902949141949060e0 6.989777553218524e0
      7.077698131451493e0 7.166724614417203e0 7.256870912684716e0 7.348151111796567e0
      7.440579474469554e0 7.534170442823402e0 7.628938640637344e0 7.724898875635069e0
      7.822066141798554e0 7.920455621710798e0 8.020082688928227e0 8.120962910382799e0
      8.223112048814334e0 8.326546065233559e0 8.431281121415953e0 8.537333582427145e0
      8.644720019179944e0 8.753457211023543e0 8.863562148365430e0 8.975052035326039e0
      9.087944292427052e0 9.202256559313341e0 9.318006697509142e0 9.435212793209077e0
      9.553893160104025e0 9.674066342242785e0 9.795751116929578e0 9.918966497657983e0
      1.004373173708196e1 1.017006633002397e1 1.029799001652121e1 1.042752278490997e1
      1.055868487494881e1 1.069149678098120e1 1.082597925513761e1 1.096215331057826e1
      1.110004022477639e1 1.123966154284282e1 1.138103908089261e1 1.152419492945368e1
      1.166915145691863e1 1.181593131303982e1 1.196455743246834e1 1.211505303833780e1
      1.226744164589273e1 1.242174706616315e1 1.257799340968491e1 1.273620509026705e1
      1.289640682880656e1 1.305862365715100e1 1.322288092200985e1 1.338920428891494e1
      1.355761974623070e1 1.372815360921503e1 1.390083252413091e1 1.407568347241016e1
      1.425273377486919e1 1.443201109597794e1 1.461354344818261e1 1.479735919628252e1
      1.498348706186231e1 1.517195612777968e1 1.536279584270958e1 1.555603602574578e1
      1.575170687105997e1 1.594983895261987e1 1.615046322896633e1 1.635361104805067e1
      1.655931415213298e1 1.676760468274171e1 1.697851518569608e1 1.719207861619130e1
      1.740832834394783e1 1.762729815842565e1 1.784902227410371e1 1.807353533582621e1
      1.830087242421586e1 1.853106906115518e1 1.876416121533709e1 1.900018530788484e1
      1.923917821804314e1 1.948117728894044e1 1.972622033342387e1 1.997434563996773e1
      2.022559197865594e1 2.047999860724009e1 2.073760527727355e1 2.099845224032252e1
      2.126258025425576e1 2.153003058961275e1 2.180084503605256e1 2.207506590888344e1
      2.235273605567463e1 2.263389886295155e1 2.291859826297479e1 2.320687874060487e1
      2.349878534025297e1 2.379436367291909e1 2.409365992331916e1 2.439672085710114e1
      2.470359382815256e1 2.501432678599951e1 2.532896828329879e1 2.564756748342455e1
      2.597017416814994e1 2.629683874542583e1 2.662761225725707e1 2.696254638767776e1
      2.730169347082730e1 2.764510649912733e1 2.799283913156227e1 2.834494570206343e1
      2.870148122799872e1 2.906250141876956e1 2.942806268451516e1 2.979822214492706e1
      3.017303763817411e1 3.055256772993960e1 3.093687172257263e1 3.132600966435381e1
      3.172004235887830e1 3.211903137455636e1 3.252303905423331e1 3.293212852493117e1
      3.334636370771194e1 3.376580932766574e1 3.419053092402412e1 3.462059486040050e1
      3.505606833516001e1 3.549701939191896e1 3.594351693017716e1 3.639563071608339e1
      3.685343139333645e1 3.731699049422366e1 3.778638045079755e1 3.826167460619385e1
      3.874294722609143e1 3.923027351031615e1 3.972372960459152e1 4.022339261243611e1
      4.072934060721152e1 4.124165264432136e1 4.176040877356361e1 4.228569005163901e1
      4.281757855481580e1 4.335615739175483e1 4.390151071649519e1 4.445372374160323e1
      4.501288275148778e1 4.557907511588160e1 4.615238930349361e1 4.673291489583214e1
      4.732074260120193e1 4.791596426887803e1 4.851867290345685e1 4.912896267938883e1
      4.974692895569322e1 5.037266829085775e1 5.100627845792681e1 5.164785845977790e1
      5.229750854459173e1 5.295533022151584e1 5.362142627652544e1 5.429590078848447e1
      5.497885914540746e1 5.567040806092731e1 5.637065559096908e1 5.707971115063383e1
      5.779768553129554e1 5.852469091791174e1 5.926084090655325e1 6.000625052215363e1
      6.076103623648167e1 6.152531598634105e1 6.229920919199742e1 6.308283677583875e1